<?xml version="1.0" encoding="UTF-8"?>

<!-- generated on Fri Apr 17 23:04:42 2020 by Eclipse SUMO GUI Version 1.5.0
<configuration xmlns:xsi="http://www.w3.org/2001/XMLSchema-instance" xsi:noNamespaceSchemaLocation="http://sumo.dlr.de/xsd/sumoConfiguration.xsd">

    <input>
        <net-file value="my_net.net.xml"/>
        <route-files value="my_route.rou.xml"/>
        <additional-files value="demo.add.xml"/>
    </input>

    <output>
        <tripinfo-output value="tripinfo.xml"/>
    </output>

    <time>
        <begin value="0"/>
        <end value="2000"/>
    </time>

    <traci_server>
        <remote-port value="59310"/>
    </traci_server>

</configuration>
-->

<detector xmlns:xsi="http://www.w3.org/2001/XMLSchema-instance" xsi:noNamespaceSchemaLocation="http://sumo.dlr.de/xsd/det_e1_file.xsd">
    <interval begin="0.00" end="42.00" id="myLoop0" nVehContrib="0" flow="0.00" occupancy="62.48" speed="-1.00" harmonicMeanSpeed="-1.00" length="-1.00" nVehEntered="1"/>
    <interval begin="0.00" end="42.00" id="myLoop1" nVehContrib="0" flow="0.00" occupancy="0.00" speed="-1.00" harmonicMeanSpeed="-1.00" length="-1.00" nVehEntered="0"/>
    <interval begin="0.00" end="42.00" id="myLoop2" nVehContrib="0" flow="0.00" occupancy="72.20" speed="-1.00" harmonicMeanSpeed="-1.00" length="-1.00" nVehEntered="1"/>
    <interval begin="0.00" end="42.00" id="myLoop3" nVehContrib="3" flow="257.14" occupancy="4.19" speed="8.54" harmonicMeanSpeed="8.52" length="5.00" nVehEntered="3"/>
    <interval begin="0.00" end="42.00" id="myLoop4" nVehContrib="0" flow="0.00" occupancy="59.39" speed="-1.00" harmonicMeanSpeed="-1.00" length="-1.00" nVehEntered="1"/>
    <interval begin="0.00" end="42.00" id="myLoop5" nVehContrib="0" flow="0.00" occupancy="80.27" speed="-1.00" harmonicMeanSpeed="-1.00" length="-1.00" nVehEntered="1"/>
    <interval begin="0.00" end="42.00" id="myLoop6" nVehContrib="0" flow="0.00" occupancy="64.92" speed="-1.00" harmonicMeanSpeed="-1.00" length="-1.00" nVehEntered="1"/>
    <interval begin="0.00" end="42.00" id="myLoop7" nVehContrib="3" flow="257.14" occupancy="3.87" speed="9.23" harmonicMeanSpeed="9.22" length="5.00" nVehEntered="3"/>
    <interval begin="0.00" end="42.00" id="myLoop8" nVehContrib="0" flow="0.00" occupancy="0.00" speed="-1.00" harmonicMeanSpeed="-1.00" length="-1.00" nVehEntered="0"/>
    <interval begin="0.00" end="42.00" id="myLoop9" nVehContrib="3" flow="257.14" occupancy="3.77" speed="9.72" harmonicMeanSpeed="9.47" length="5.00" nVehEntered="3"/>
    <interval begin="0.00" end="42.00" id="myLoop10" nVehContrib="0" flow="0.00" occupancy="0.00" speed="-1.00" harmonicMeanSpeed="-1.00" length="-1.00" nVehEntered="0"/>
    <interval begin="0.00" end="42.00" id="myLoop11" nVehContrib="0" flow="0.00" occupancy="0.00" speed="-1.00" harmonicMeanSpeed="-1.00" length="-1.00" nVehEntered="0"/>
    <interval begin="0.00" end="42.00" id="myLoop12" nVehContrib="0" flow="0.00" occupancy="0.00" speed="-1.00" harmonicMeanSpeed="-1.00" length="-1.00" nVehEntered="0"/>
    <interval begin="0.00" end="42.00" id="myLoop13" nVehContrib="3" flow="257.14" occupancy="3.55" speed="10.15" harmonicMeanSpeed="10.07" length="5.00" nVehEntered="3"/>
    <interval begin="0.00" end="42.00" id="myLoop14" nVehContrib="0" flow="0.00" occupancy="0.00" speed="-1.00" harmonicMeanSpeed="-1.00" length="-1.00" nVehEntered="0"/>
    <interval begin="0.00" end="42.00" id="myLoop15" nVehContrib="0" flow="0.00" occupancy="0.00" speed="-1.00" harmonicMeanSpeed="-1.00" length="-1.00" nVehEntered="0"/>
    <interval begin="42.00" end="84.00" id="myLoop0" nVehContrib="0" flow="0.00" occupancy="100.00" speed="-1.00" harmonicMeanSpeed="-1.00" length="-1.00" nVehEntered="0"/>
    <interval begin="42.00" end="84.00" id="myLoop1" nVehContrib="0" flow="0.00" occupancy="80.17" speed="-1.00" harmonicMeanSpeed="-1.00" length="-1.00" nVehEntered="1"/>
    <interval begin="42.00" end="84.00" id="myLoop2" nVehContrib="10" flow="857.14" occupancy="17.76" speed="7.33" harmonicMeanSpeed="1.32" length="5.00" nVehEntered="9"/>
    <interval begin="42.00" end="84.00" id="myLoop3" nVehContrib="0" flow="0.00" occupancy="53.51" speed="-1.00" harmonicMeanSpeed="-1.00" length="-1.00" nVehEntered="1"/>
    <interval begin="42.00" end="84.00" id="myLoop4" nVehContrib="0" flow="0.00" occupancy="100.00" speed="-1.00" harmonicMeanSpeed="-1.00" length="-1.00" nVehEntered="0"/>
    <interval begin="42.00" end="84.00" id="myLoop5" nVehContrib="0" flow="0.00" occupancy="100.00" speed="-1.00" harmonicMeanSpeed="-1.00" length="-1.00" nVehEntered="0"/>
    <interval begin="42.00" end="84.00" id="myLoop6" nVehContrib="12" flow="1028.57" occupancy="26.66" speed="5.85" harmonicMeanSpeed="1.58" length="5.00" nVehEntered="12"/>
    <interval begin="42.00" end="84.00" id="myLoop7" nVehContrib="0" flow="0.00" occupancy="21.50" speed="-1.00" harmonicMeanSpeed="-1.00" length="-1.00" nVehEntered="1"/>
    <interval begin="42.00" end="84.00" id="myLoop8" nVehContrib="6" flow="514.29" occupancy="9.78" speed="7.34" harmonicMeanSpeed="7.31" length="5.00" nVehEntered="6"/>
    <interval begin="42.00" end="84.00" id="myLoop9" nVehContrib="0" flow="0.00" occupancy="0.00" speed="-1.00" harmonicMeanSpeed="-1.00" length="-1.00" nVehEntered="0"/>
    <interval begin="42.00" end="84.00" id="myLoop10" nVehContrib="6" flow="514.29" occupancy="5.80" speed="12.39" harmonicMeanSpeed="12.32" length="5.00" nVehEntered="6"/>
    <interval begin="42.00" end="84.00" id="myLoop11" nVehContrib="0" flow="0.00" occupancy="0.00" speed="-1.00" harmonicMeanSpeed="-1.00" length="-1.00" nVehEntered="0"/>
    <interval begin="42.00" end="84.00" id="myLoop12" nVehContrib="2" flow="171.43" occupancy="3.16" speed="7.54" harmonicMeanSpeed="7.53" length="5.00" nVehEntered="2"/>
    <interval begin="42.00" end="84.00" id="myLoop13" nVehContrib="0" flow="0.00" occupancy="0.00" speed="-1.00" harmonicMeanSpeed="-1.00" length="-1.00" nVehEntered="0"/>
    <interval begin="42.00" end="84.00" id="myLoop14" nVehContrib="7" flow="600.00" occupancy="6.55" speed="12.93" harmonicMeanSpeed="12.71" length="5.00" nVehEntered="7"/>
    <interval begin="42.00" end="84.00" id="myLoop15" nVehContrib="0" flow="0.00" occupancy="0.00" speed="-1.00" harmonicMeanSpeed="-1.00" length="-1.00" nVehEntered="0"/>
    <interval begin="84.00" end="126.00" id="myLoop0" nVehContrib="0" flow="0.00" occupancy="100.00" speed="-1.00" harmonicMeanSpeed="-1.00" length="-1.00" nVehEntered="0"/>
    <interval begin="84.00" end="126.00" id="myLoop1" nVehContrib="1" flow="85.71" occupancy="3.73" speed="0.14" harmonicMeanSpeed="0.14" length="5.00" nVehEntered="0"/>
    <interval begin="84.00" end="126.00" id="myLoop2" nVehContrib="0" flow="0.00" occupancy="86.36" speed="-1.00" harmonicMeanSpeed="-1.00" length="-1.00" nVehEntered="1"/>
    <interval begin="84.00" end="126.00" id="myLoop3" nVehContrib="0" flow="0.00" occupancy="100.00" speed="-1.00" harmonicMeanSpeed="-1.00" length="-1.00" nVehEntered="0"/>
    <interval begin="84.00" end="126.00" id="myLoop4" nVehContrib="0" flow="0.00" occupancy="100.00" speed="-1.00" harmonicMeanSpeed="-1.00" length="-1.00" nVehEntered="0"/>
    <interval begin="84.00" end="126.00" id="myLoop5" nVehContrib="2" flow="171.43" occupancy="6.36" speed="2.49" harmonicMeanSpeed="0.13" length="5.00" nVehEntered="1"/>
    <interval begin="84.00" end="126.00" id="myLoop6" nVehContrib="1" flow="85.71" occupancy="94.87" speed="9.68" harmonicMeanSpeed="9.68" length="5.00" nVehEntered="1"/>
    <interval begin="84.00" end="126.00" id="myLoop7" nVehContrib="0" flow="0.00" occupancy="100.00" speed="-1.00" harmonicMeanSpeed="-1.00" length="-1.00" nVehEntered="0"/>
    <interval begin="84.00" end="126.00" id="myLoop8" nVehContrib="0" flow="0.00" occupancy="0.00" speed="-1.00" harmonicMeanSpeed="-1.00" length="-1.00" nVehEntered="0"/>
    <interval begin="84.00" end="126.00" id="myLoop9" nVehContrib="0" flow="0.00" occupancy="0.00" speed="-1.00" harmonicMeanSpeed="-1.00" length="-1.00" nVehEntered="0"/>
    <interval begin="84.00" end="126.00" id="myLoop10" nVehContrib="1" flow="85.71" occupancy="0.78" speed="15.17" harmonicMeanSpeed="15.17" length="5.00" nVehEntered="1"/>
    <interval begin="84.00" end="126.00" id="myLoop11" nVehContrib="2" flow="171.43" occupancy="2.73" speed="8.71" harmonicMeanSpeed="8.71" length="5.00" nVehEntered="2"/>
    <interval begin="84.00" end="126.00" id="myLoop12" nVehContrib="0" flow="0.00" occupancy="0.00" speed="-1.00" harmonicMeanSpeed="-1.00" length="-1.00" nVehEntered="0"/>
    <interval begin="84.00" end="126.00" id="myLoop13" nVehContrib="0" flow="0.00" occupancy="0.00" speed="-1.00" harmonicMeanSpeed="-1.00" length="-1.00" nVehEntered="0"/>
    <interval begin="84.00" end="126.00" id="myLoop14" nVehContrib="1" flow="85.71" occupancy="0.98" speed="12.20" harmonicMeanSpeed="12.20" length="5.00" nVehEntered="1"/>
    <interval begin="84.00" end="126.00" id="myLoop15" nVehContrib="1" flow="85.71" occupancy="1.14" speed="10.45" harmonicMeanSpeed="10.45" length="5.00" nVehEntered="1"/>
    <interval begin="126.00" end="168.00" id="myLoop0" nVehContrib="10" flow="857.14" occupancy="33.99" speed="6.62" harmonicMeanSpeed="0.42" length="5.00" nVehEntered="10"/>
    <interval begin="126.00" end="168.00" id="myLoop1" nVehContrib="0" flow="0.00" occupancy="57.53" speed="-1.00" harmonicMeanSpeed="-1.00" length="-1.00" nVehEntered="1"/>
    <interval begin="126.00" end="168.00" id="myLoop2" nVehContrib="0" flow="0.00" occupancy="100.00" speed="-1.00" harmonicMeanSpeed="-1.00" length="-1.00" nVehEntered="0"/>
    <interval begin="126.00" end="168.00" id="myLoop3" nVehContrib="0" flow="0.00" occupancy="100.00" speed="-1.00" harmonicMeanSpeed="-1.00" length="-1.00" nVehEntered="0"/>
    <interval begin="126.00" end="168.00" id="myLoop4" nVehContrib="14" flow="1200.00" occupancy="28.56" speed="7.12" harmonicMeanSpeed="0.58" length="5.00" nVehEntered="13"/>
    <interval begin="126.00" end="168.00" id="myLoop5" nVehContrib="0" flow="0.00" occupancy="52.08" speed="-1.00" harmonicMeanSpeed="-1.00" length="-1.00" nVehEntered="1"/>
    <interval begin="126.00" end="168.00" id="myLoop6" nVehContrib="0" flow="0.00" occupancy="100.00" speed="-1.00" harmonicMeanSpeed="-1.00" length="-1.00" nVehEntered="0"/>
    <interval begin="126.00" end="168.00" id="myLoop7" nVehContrib="0" flow="0.00" occupancy="100.00" speed="-1.00" harmonicMeanSpeed="-1.00" length="-1.00" nVehEntered="0"/>
    <interval begin="126.00" end="168.00" id="myLoop8" nVehContrib="8" flow="685.71" occupancy="7.33" speed="13.37" harmonicMeanSpeed="12.99" length="5.00" nVehEntered="8"/>
    <interval begin="126.00" end="168.00" id="myLoop9" nVehContrib="0" flow="0.00" occupancy="0.00" speed="-1.00" harmonicMeanSpeed="-1.00" length="-1.00" nVehEntered="0"/>
    <interval begin="126.00" end="168.00" id="myLoop10" nVehContrib="6" flow="514.29" occupancy="9.82" speed="7.28" harmonicMeanSpeed="7.27" length="5.00" nVehEntered="6"/>
    <interval begin="126.00" end="168.00" id="myLoop11" nVehContrib="0" flow="0.00" occupancy="0.00" speed="-1.00" harmonicMeanSpeed="-1.00" length="-1.00" nVehEntered="0"/>
    <interval begin="126.00" end="168.00" id="myLoop12" nVehContrib="4" flow="342.86" occupancy="3.66" speed="13.07" harmonicMeanSpeed="13.02" length="5.00" nVehEntered="4"/>
    <interval begin="126.00" end="168.00" id="myLoop13" nVehContrib="0" flow="0.00" occupancy="0.00" speed="-1.00" harmonicMeanSpeed="-1.00" length="-1.00" nVehEntered="0"/>
    <interval begin="126.00" end="168.00" id="myLoop14" nVehContrib="5" flow="428.57" occupancy="7.75" speed="7.68" harmonicMeanSpeed="7.68" length="5.00" nVehEntered="5"/>
    <interval begin="126.00" end="168.00" id="myLoop15" nVehContrib="0" flow="0.00" occupancy="0.00" speed="-1.00" harmonicMeanSpeed="-1.00" length="-1.00" nVehEntered="0"/>
    <interval begin="168.00" end="210.00" id="myLoop0" nVehContrib="0" flow="0.00" occupancy="100.00" speed="-1.00" harmonicMeanSpeed="-1.00" length="-1.00" nVehEntered="0"/>
    <interval begin="168.00" end="210.00" id="myLoop1" nVehContrib="0" flow="0.00" occupancy="100.00" speed="-1.00" harmonicMeanSpeed="-1.00" length="-1.00" nVehEntered="0"/>
    <interval begin="168.00" end="210.00" id="myLoop2" nVehContrib="0" flow="0.00" occupancy="100.00" speed="-1.00" harmonicMeanSpeed="-1.00" length="-1.00" nVehEntered="0"/>
    <interval begin="168.00" end="210.00" id="myLoop3" nVehContrib="5" flow="428.57" occupancy="13.92" speed="5.42" harmonicMeanSpeed="0.22" length="5.00" nVehEntered="4"/>
    <interval begin="168.00" end="210.00" id="myLoop4" nVehContrib="1" flow="85.71" occupancy="67.01" speed="10.06" harmonicMeanSpeed="10.06" length="5.00" nVehEntered="2"/>
    <interval begin="168.00" end="210.00" id="myLoop5" nVehContrib="0" flow="0.00" occupancy="100.00" speed="-1.00" harmonicMeanSpeed="-1.00" length="-1.00" nVehEntered="0"/>
    <interval begin="168.00" end="210.00" id="myLoop6" nVehContrib="0" flow="0.00" occupancy="100.00" speed="-1.00" harmonicMeanSpeed="-1.00" length="-1.00" nVehEntered="0"/>
    <interval begin="168.00" end="210.00" id="myLoop7" nVehContrib="4" flow="342.86" occupancy="12.08" speed="5.51" harmonicMeanSpeed="0.20" length="5.00" nVehEntered="3"/>
    <interval begin="168.00" end="210.00" id="myLoop8" nVehContrib="1" flow="85.71" occupancy="0.82" speed="14.45" harmonicMeanSpeed="14.45" length="5.00" nVehEntered="1"/>
    <interval begin="168.00" end="210.00" id="myLoop9" nVehContrib="5" flow="428.57" occupancy="6.06" speed="9.88" harmonicMeanSpeed="9.82" length="5.00" nVehEntered="5"/>
    <interval begin="168.00" end="210.00" id="myLoop10" nVehContrib="0" flow="0.00" occupancy="0.00" speed="-1.00" harmonicMeanSpeed="-1.00" length="-1.00" nVehEntered="0"/>
    <interval begin="168.00" end="210.00" id="myLoop11" nVehContrib="0" flow="0.00" occupancy="0.00" speed="-1.00" harmonicMeanSpeed="-1.00" length="-1.00" nVehEntered="0"/>
    <interval begin="168.00" end="210.00" id="myLoop12" nVehContrib="0" flow="0.00" occupancy="0.00" speed="-1.00" harmonicMeanSpeed="-1.00" length="-1.00" nVehEntered="0"/>
    <interval begin="168.00" end="210.00" id="myLoop13" nVehContrib="4" flow="342.86" occupancy="4.95" speed="9.68" harmonicMeanSpeed="9.62" length="5.00" nVehEntered="4"/>
    <interval begin="168.00" end="210.00" id="myLoop14" nVehContrib="1" flow="85.71" occupancy="1.49" speed="7.97" harmonicMeanSpeed="7.97" length="5.00" nVehEntered="1"/>
    <interval begin="168.00" end="210.00" id="myLoop15" nVehContrib="0" flow="0.00" occupancy="0.00" speed="-1.00" harmonicMeanSpeed="-1.00" length="-1.00" nVehEntered="0"/>
    <interval begin="210.00" end="252.00" id="myLoop0" nVehContrib="0" flow="0.00" occupancy="100.00" speed="-1.00" harmonicMeanSpeed="-1.00" length="-1.00" nVehEntered="0"/>
    <interval begin="210.00" end="252.00" id="myLoop1" nVehContrib="0" flow="0.00" occupancy="100.00" speed="-1.00" harmonicMeanSpeed="-1.00" length="-1.00" nVehEntered="0"/>
    <interval begin="210.00" end="252.00" id="myLoop2" nVehContrib="10" flow="857.14" occupancy="22.84" speed="7.65" harmonicMeanSpeed="0.39" length="5.00" nVehEntered="9"/>
    <interval begin="210.00" end="252.00" id="myLoop3" nVehContrib="0" flow="0.00" occupancy="61.95" speed="-1.00" harmonicMeanSpeed="-1.00" length="-1.00" nVehEntered="1"/>
    <interval begin="210.00" end="252.00" id="myLoop4" nVehContrib="0" flow="0.00" occupancy="100.00" speed="-1.00" harmonicMeanSpeed="-1.00" length="-1.00" nVehEntered="0"/>
    <interval begin="210.00" end="252.00" id="myLoop5" nVehContrib="0" flow="0.00" occupancy="100.00" speed="-1.00" harmonicMeanSpeed="-1.00" length="-1.00" nVehEntered="0"/>
    <interval begin="210.00" end="252.00" id="myLoop6" nVehContrib="14" flow="1200.00" occupancy="28.33" speed="8.49" harmonicMeanSpeed="0.52" length="5.00" nVehEntered="13"/>
    <interval begin="210.00" end="252.00" id="myLoop7" nVehContrib="0" flow="0.00" occupancy="0.00" speed="-1.00" harmonicMeanSpeed="-1.00" length="-1.00" nVehEntered="0"/>
    <interval begin="210.00" end="252.00" id="myLoop8" nVehContrib="3" flow="257.14" occupancy="5.18" speed="6.94" harmonicMeanSpeed="6.90" length="5.00" nVehEntered="3"/>
    <interval begin="210.00" end="252.00" id="myLoop9" nVehContrib="0" flow="0.00" occupancy="0.00" speed="-1.00" harmonicMeanSpeed="-1.00" length="-1.00" nVehEntered="0"/>
    <interval begin="210.00" end="252.00" id="myLoop10" nVehContrib="11" flow="942.86" occupancy="9.58" speed="13.99" harmonicMeanSpeed="13.67" length="5.00" nVehEntered="11"/>
    <interval begin="210.00" end="252.00" id="myLoop11" nVehContrib="0" flow="0.00" occupancy="0.00" speed="-1.00" harmonicMeanSpeed="-1.00" length="-1.00" nVehEntered="0"/>
    <interval begin="210.00" end="252.00" id="myLoop12" nVehContrib="4" flow="342.86" occupancy="6.49" speed="7.37" harmonicMeanSpeed="7.34" length="5.00" nVehEntered="4"/>
    <interval begin="210.00" end="252.00" id="myLoop13" nVehContrib="0" flow="0.00" occupancy="0.00" speed="-1.00" harmonicMeanSpeed="-1.00" length="-1.00" nVehEntered="0"/>
    <interval begin="210.00" end="252.00" id="myLoop14" nVehContrib="6" flow="514.29" occupancy="5.32" speed="13.83" harmonicMeanSpeed="13.42" length="5.00" nVehEntered="6"/>
    <interval begin="210.00" end="252.00" id="myLoop15" nVehContrib="0" flow="0.00" occupancy="0.00" speed="-1.00" harmonicMeanSpeed="-1.00" length="-1.00" nVehEntered="0"/>
    <interval begin="252.00" end="294.00" id="myLoop0" nVehContrib="0" flow="0.00" occupancy="83.07" speed="-1.00" harmonicMeanSpeed="-1.00" length="-1.00" nVehEntered="1"/>
    <interval begin="252.00" end="294.00" id="myLoop1" nVehContrib="8" flow="685.71" occupancy="22.62" speed="5.76" harmonicMeanSpeed="0.34" length="5.00" nVehEntered="7"/>
    <interval begin="252.00" end="294.00" id="myLoop2" nVehContrib="0" flow="0.00" occupancy="94.11" speed="-1.00" harmonicMeanSpeed="-1.00" length="-1.00" nVehEntered="1"/>
    <interval begin="252.00" end="294.00" id="myLoop3" nVehContrib="0" flow="0.00" occupancy="100.00" speed="-1.00" harmonicMeanSpeed="-1.00" length="-1.00" nVehEntered="0"/>
    <interval begin="252.00" end="294.00" id="myLoop4" nVehContrib="0" flow="0.00" occupancy="82.37" speed="-1.00" harmonicMeanSpeed="-1.00" length="-1.00" nVehEntered="1"/>
    <interval begin="252.00" end="294.00" id="myLoop5" nVehContrib="9" flow="771.43" occupancy="23.57" speed="6.44" harmonicMeanSpeed="0.39" length="5.00" nVehEntered="8"/>
    <interval begin="252.00" end="294.00" id="myLoop6" nVehContrib="1" flow="85.71" occupancy="93.97" speed="5.91" harmonicMeanSpeed="5.91" length="5.00" nVehEntered="2"/>
    <interval begin="252.00" end="294.00" id="myLoop7" nVehContrib="0" flow="0.00" occupancy="84.84" speed="-1.00" harmonicMeanSpeed="-1.00" length="-1.00" nVehEntered="1"/>
    <interval begin="252.00" end="294.00" id="myLoop8" nVehContrib="1" flow="85.71" occupancy="1.63" speed="7.31" harmonicMeanSpeed="7.31" length="5.00" nVehEntered="1"/>
    <interval begin="252.00" end="294.00" id="myLoop9" nVehContrib="0" flow="0.00" occupancy="0.00" speed="-1.00" harmonicMeanSpeed="-1.00" length="-1.00" nVehEntered="0"/>
    <interval begin="252.00" end="294.00" id="myLoop10" nVehContrib="0" flow="0.00" occupancy="0.00" speed="-1.00" harmonicMeanSpeed="-1.00" length="-1.00" nVehEntered="0"/>
    <interval begin="252.00" end="294.00" id="myLoop11" nVehContrib="9" flow="771.43" occupancy="10.93" speed="9.92" harmonicMeanSpeed="9.80" length="5.00" nVehEntered="9"/>
    <interval begin="252.00" end="294.00" id="myLoop12" nVehContrib="0" flow="0.00" occupancy="0.00" speed="-1.00" harmonicMeanSpeed="-1.00" length="-1.00" nVehEntered="0"/>
    <interval begin="252.00" end="294.00" id="myLoop13" nVehContrib="0" flow="0.00" occupancy="0.00" speed="-1.00" harmonicMeanSpeed="-1.00" length="-1.00" nVehEntered="0"/>
    <interval begin="252.00" end="294.00" id="myLoop14" nVehContrib="0" flow="0.00" occupancy="0.00" speed="-1.00" harmonicMeanSpeed="-1.00" length="-1.00" nVehEntered="0"/>
    <interval begin="252.00" end="294.00" id="myLoop15" nVehContrib="8" flow="685.71" occupancy="10.38" speed="9.24" harmonicMeanSpeed="9.17" length="5.00" nVehEntered="8"/>
    <interval begin="294.00" end="336.00" id="myLoop0" nVehContrib="13" flow="1114.29" occupancy="32.20" speed="6.51" harmonicMeanSpeed="1.34" length="5.00" nVehEntered="12"/>
    <interval begin="294.00" end="336.00" id="myLoop1" nVehContrib="0" flow="0.00" occupancy="59.62" speed="-1.00" harmonicMeanSpeed="-1.00" length="-1.00" nVehEntered="1"/>
    <interval begin="294.00" end="336.00" id="myLoop2" nVehContrib="0" flow="0.00" occupancy="100.00" speed="-1.00" harmonicMeanSpeed="-1.00" length="-1.00" nVehEntered="0"/>
    <interval begin="294.00" end="336.00" id="myLoop3" nVehContrib="0" flow="0.00" occupancy="100.00" speed="-1.00" harmonicMeanSpeed="-1.00" length="-1.00" nVehEntered="0"/>
    <interval begin="294.00" end="336.00" id="myLoop4" nVehContrib="12" flow="1028.57" occupancy="31.30" speed="6.61" harmonicMeanSpeed="1.26" length="5.00" nVehEntered="12"/>
    <interval begin="294.00" end="336.00" id="myLoop5" nVehContrib="0" flow="0.00" occupancy="60.99" speed="-1.00" harmonicMeanSpeed="-1.00" length="-1.00" nVehEntered="1"/>
    <interval begin="294.00" end="336.00" id="myLoop6" nVehContrib="0" flow="0.00" occupancy="100.00" speed="-1.00" harmonicMeanSpeed="-1.00" length="-1.00" nVehEntered="0"/>
    <interval begin="294.00" end="336.00" id="myLoop7" nVehContrib="0" flow="0.00" occupancy="100.00" speed="-1.00" harmonicMeanSpeed="-1.00" length="-1.00" nVehEntered="0"/>
    <interval begin="294.00" end="336.00" id="myLoop8" nVehContrib="3" flow="257.14" occupancy="2.90" speed="12.50" harmonicMeanSpeed="12.32" length="5.00" nVehEntered="3"/>
    <interval begin="294.00" end="336.00" id="myLoop9" nVehContrib="0" flow="0.00" occupancy="0.00" speed="-1.00" harmonicMeanSpeed="-1.00" length="-1.00" nVehEntered="0"/>
    <interval begin="294.00" end="336.00" id="myLoop10" nVehContrib="7" flow="600.00" occupancy="12.02" speed="7.01" harmonicMeanSpeed="6.93" length="5.00" nVehEntered="7"/>
    <interval begin="294.00" end="336.00" id="myLoop11" nVehContrib="0" flow="0.00" occupancy="0.00" speed="-1.00" harmonicMeanSpeed="-1.00" length="-1.00" nVehEntered="0"/>
    <interval begin="294.00" end="336.00" id="myLoop12" nVehContrib="5" flow="428.57" occupancy="4.78" speed="12.51" harmonicMeanSpeed="12.46" length="5.00" nVehEntered="5"/>
    <interval begin="294.00" end="336.00" id="myLoop13" nVehContrib="0" flow="0.00" occupancy="0.00" speed="-1.00" harmonicMeanSpeed="-1.00" length="-1.00" nVehEntered="0"/>
    <interval begin="294.00" end="336.00" id="myLoop14" nVehContrib="9" flow="771.43" occupancy="13.71" speed="7.84" harmonicMeanSpeed="7.82" length="5.00" nVehEntered="9"/>
    <interval begin="294.00" end="336.00" id="myLoop15" nVehContrib="0" flow="0.00" occupancy="0.00" speed="-1.00" harmonicMeanSpeed="-1.00" length="-1.00" nVehEntered="0"/>
    <interval begin="336.00" end="378.00" id="myLoop0" nVehContrib="1" flow="85.71" occupancy="88.12" speed="9.06" harmonicMeanSpeed="9.06" length="5.00" nVehEntered="2"/>
    <interval begin="336.00" end="378.00" id="myLoop1" nVehContrib="0" flow="0.00" occupancy="100.00" speed="-1.00" harmonicMeanSpeed="-1.00" length="-1.00" nVehEntered="0"/>
    <interval begin="336.00" end="378.00" id="myLoop2" nVehContrib="0" flow="0.00" occupancy="66.51" speed="-1.00" harmonicMeanSpeed="-1.00" length="-1.00" nVehEntered="2"/>
    <interval begin="336.00" end="378.00" id="myLoop3" nVehContrib="7" flow="600.00" occupancy="25.47" speed="4.45" harmonicMeanSpeed="0.29" length="5.00" nVehEntered="6"/>
    <interval begin="336.00" end="378.00" id="myLoop4" nVehContrib="1" flow="85.71" occupancy="87.18" speed="7.86" harmonicMeanSpeed="7.86" length="5.00" nVehEntered="1"/>
    <interval begin="336.00" end="378.00" id="myLoop5" nVehContrib="0" flow="0.00" occupancy="100.00" speed="-1.00" harmonicMeanSpeed="-1.00" length="-1.00" nVehEntered="0"/>
    <interval begin="336.00" end="378.00" id="myLoop6" nVehContrib="0" flow="0.00" occupancy="100.00" speed="-1.00" harmonicMeanSpeed="-1.00" length="-1.00" nVehEntered="0"/>
    <interval begin="336.00" end="378.00" id="myLoop7" nVehContrib="1" flow="85.71" occupancy="11.39" speed="0.06" harmonicMeanSpeed="0.06" length="5.00" nVehEntered="0"/>
    <interval begin="336.00" end="378.00" id="myLoop8" nVehContrib="0" flow="0.00" occupancy="0.00" speed="-1.00" harmonicMeanSpeed="-1.00" length="-1.00" nVehEntered="0"/>
    <interval begin="336.00" end="378.00" id="myLoop9" nVehContrib="7" flow="600.00" occupancy="9.15" speed="9.26" harmonicMeanSpeed="9.11" length="5.00" nVehEntered="7"/>
    <interval begin="336.00" end="378.00" id="myLoop10" nVehContrib="1" flow="85.71" occupancy="1.60" speed="7.44" harmonicMeanSpeed="7.44" length="5.00" nVehEntered="1"/>
    <interval begin="336.00" end="378.00" id="myLoop11" nVehContrib="0" flow="0.00" occupancy="0.00" speed="-1.00" harmonicMeanSpeed="-1.00" length="-1.00" nVehEntered="0"/>
    <interval begin="336.00" end="378.00" id="myLoop12" nVehContrib="1" flow="85.71" occupancy="0.83" speed="14.39" harmonicMeanSpeed="14.39" length="5.00" nVehEntered="1"/>
    <interval begin="336.00" end="378.00" id="myLoop13" nVehContrib="1" flow="85.71" occupancy="1.14" speed="10.43" harmonicMeanSpeed="10.43" length="5.00" nVehEntered="1"/>
    <interval begin="336.00" end="378.00" id="myLoop14" nVehContrib="1" flow="85.71" occupancy="1.56" speed="7.61" harmonicMeanSpeed="7.61" length="5.00" nVehEntered="1"/>
    <interval begin="336.00" end="378.00" id="myLoop15" nVehContrib="0" flow="0.00" occupancy="0.00" speed="-1.00" harmonicMeanSpeed="-1.00" length="-1.00" nVehEntered="0"/>
    <interval begin="378.00" end="420.00" id="myLoop0" nVehContrib="0" flow="0.00" occupancy="100.00" speed="-1.00" harmonicMeanSpeed="-1.00" length="-1.00" nVehEntered="0"/>
    <interval begin="378.00" end="420.00" id="myLoop1" nVehContrib="0" flow="0.00" occupancy="100.00" speed="-1.00" harmonicMeanSpeed="-1.00" length="-1.00" nVehEntered="0"/>
    <interval begin="378.00" end="420.00" id="myLoop2" nVehContrib="13" flow="1114.29" occupancy="33.82" speed="6.98" harmonicMeanSpeed="1.54" length="5.00" nVehEntered="12"/>
    <interval begin="378.00" end="420.00" id="myLoop3" nVehContrib="0" flow="0.00" occupancy="0.00" speed="-1.00" harmonicMeanSpeed="-1.00" length="-1.00" nVehEntered="0"/>
    <interval begin="378.00" end="420.00" id="myLoop4" nVehContrib="0" flow="0.00" occupancy="100.00" speed="-1.00" harmonicMeanSpeed="-1.00" length="-1.00" nVehEntered="0"/>
    <interval begin="378.00" end="420.00" id="myLoop5" nVehContrib="0" flow="0.00" occupancy="100.00" speed="-1.00" harmonicMeanSpeed="-1.00" length="-1.00" nVehEntered="0"/>
    <interval begin="378.00" end="420.00" id="myLoop6" nVehContrib="12" flow="1028.57" occupancy="31.63" speed="7.38" harmonicMeanSpeed="0.44" length="5.00" nVehEntered="11"/>
    <interval begin="378.00" end="420.00" id="myLoop7" nVehContrib="0" flow="0.00" occupancy="37.32" speed="-1.00" harmonicMeanSpeed="-1.00" length="-1.00" nVehEntered="1"/>
    <interval begin="378.00" end="420.00" id="myLoop8" nVehContrib="4" flow="342.86" occupancy="6.86" speed="6.94" harmonicMeanSpeed="6.94" length="5.00" nVehEntered="4"/>
    <interval begin="378.00" end="420.00" id="myLoop9" nVehContrib="0" flow="0.00" occupancy="0.00" speed="-1.00" harmonicMeanSpeed="-1.00" length="-1.00" nVehEntered="0"/>
    <interval begin="378.00" end="420.00" id="myLoop10" nVehContrib="8" flow="685.71" occupancy="7.39" speed="13.09" harmonicMeanSpeed="12.88" length="5.00" nVehEntered="8"/>
    <interval begin="378.00" end="420.00" id="myLoop11" nVehContrib="0" flow="0.00" occupancy="0.00" speed="-1.00" harmonicMeanSpeed="-1.00" length="-1.00" nVehEntered="0"/>
    <interval begin="378.00" end="420.00" id="myLoop12" nVehContrib="5" flow="428.57" occupancy="7.66" speed="7.80" harmonicMeanSpeed="7.77" length="5.00" nVehEntered="5"/>
    <interval begin="378.00" end="420.00" id="myLoop13" nVehContrib="0" flow="0.00" occupancy="0.00" speed="-1.00" harmonicMeanSpeed="-1.00" length="-1.00" nVehEntered="0"/>
    <interval begin="378.00" end="420.00" id="myLoop14" nVehContrib="7" flow="600.00" occupancy="6.74" speed="12.51" harmonicMeanSpeed="12.36" length="5.00" nVehEntered="7"/>
    <interval begin="378.00" end="420.00" id="myLoop15" nVehContrib="0" flow="0.00" occupancy="0.00" speed="-1.00" harmonicMeanSpeed="-1.00" length="-1.00" nVehEntered="0"/>
    <interval begin="420.00" end="462.00" id="myLoop0" nVehContrib="0" flow="0.00" occupancy="100.00" speed="-1.00" harmonicMeanSpeed="-1.00" length="-1.00" nVehEntered="0"/>
    <interval begin="420.00" end="462.00" id="myLoop1" nVehContrib="4" flow="342.86" occupancy="19.68" speed="5.19" harmonicMeanSpeed="0.17" length="5.00" nVehEntered="3"/>
    <interval begin="420.00" end="462.00" id="myLoop2" nVehContrib="1" flow="85.71" occupancy="71.38" speed="11.41" harmonicMeanSpeed="11.41" length="5.00" nVehEntered="2"/>
    <interval begin="420.00" end="462.00" id="myLoop3" nVehContrib="0" flow="0.00" occupancy="91.78" speed="-1.00" harmonicMeanSpeed="-1.00" length="-1.00" nVehEntered="1"/>
    <interval begin="420.00" end="462.00" id="myLoop4" nVehContrib="0" flow="0.00" occupancy="78.32" speed="-1.00" harmonicMeanSpeed="-1.00" length="-1.00" nVehEntered="1"/>
    <interval begin="420.00" end="462.00" id="myLoop5" nVehContrib="8" flow="685.71" occupancy="27.70" speed="5.68" harmonicMeanSpeed="0.33" length="5.00" nVehEntered="7"/>
    <interval begin="420.00" end="462.00" id="myLoop6" nVehContrib="1" flow="85.71" occupancy="87.17" speed="11.36" harmonicMeanSpeed="11.36" length="5.00" nVehEntered="2"/>
    <interval begin="420.00" end="462.00" id="myLoop7" nVehContrib="0" flow="0.00" occupancy="100.00" speed="-1.00" harmonicMeanSpeed="-1.00" length="-1.00" nVehEntered="0"/>