<?xml version="1.0" encoding="UTF-8"?>

<!-- generated on Wed Apr 22 23:02:39 2020 by Eclipse SUMO GUI Version 1.5.0
<configuration xmlns:xsi="http://www.w3.org/2001/XMLSchema-instance" xsi:noNamespaceSchemaLocation="http://sumo.dlr.de/xsd/sumoConfiguration.xsd">

    <input>
        <net-file value="my_net.net.xml"/>
        <route-files value="my_route.rou.xml"/>
        <additional-files value="demo.add.xml"/>
    </input>

    <output>
        <tripinfo-output value="tripinfo.xml"/>
    </output>

    <time>
        <begin value="0"/>
        <end value="2000"/>
    </time>

    <traci_server>
        <remote-port value="50950"/>
    </traci_server>

</configuration>
-->

<detector xmlns:xsi="http://www.w3.org/2001/XMLSchema-instance" xsi:noNamespaceSchemaLocation="http://sumo.dlr.de/xsd/det_e1_file.xsd">
    <interval begin="0.00" end="42.00" id="myLoop0" nVehContrib="0" flow="0.00" occupancy="43.90" speed="-1.00" harmonicMeanSpeed="-1.00" length="-1.00" nVehEntered="1"/>
    <interval begin="0.00" end="42.00" id="myLoop1" nVehContrib="0" flow="0.00" occupancy="38.72" speed="-1.00" harmonicMeanSpeed="-1.00" length="-1.00" nVehEntered="1"/>
    <interval begin="0.00" end="42.00" id="myLoop2" nVehContrib="9" flow="771.43" occupancy="15.95" speed="7.30" harmonicMeanSpeed="6.72" length="5.00" nVehEntered="9"/>
    <interval begin="0.00" end="42.00" id="myLoop3" nVehContrib="0" flow="0.00" occupancy="0.00" speed="-1.00" harmonicMeanSpeed="-1.00" length="-1.00" nVehEntered="0"/>
    <interval begin="0.00" end="42.00" id="myLoop4" nVehContrib="0" flow="0.00" occupancy="50.82" speed="-1.00" harmonicMeanSpeed="-1.00" length="-1.00" nVehEntered="1"/>
    <interval begin="0.00" end="42.00" id="myLoop5" nVehContrib="0" flow="0.00" occupancy="0.00" speed="-1.00" harmonicMeanSpeed="-1.00" length="-1.00" nVehEntered="0"/>
    <interval begin="0.00" end="42.00" id="myLoop6" nVehContrib="2" flow="171.43" occupancy="25.80" speed="6.30" harmonicMeanSpeed="6.30" length="5.00" nVehEntered="3"/>
    <interval begin="0.00" end="42.00" id="myLoop7" nVehContrib="0" flow="0.00" occupancy="27.15" speed="-1.00" harmonicMeanSpeed="-1.00" length="-1.00" nVehEntered="1"/>
    <interval begin="0.00" end="42.00" id="myLoop8" nVehContrib="2" flow="171.43" occupancy="3.04" speed="7.93" harmonicMeanSpeed="7.82" length="5.00" nVehEntered="2"/>
    <interval begin="0.00" end="42.00" id="myLoop9" nVehContrib="0" flow="0.00" occupancy="0.00" speed="-1.00" harmonicMeanSpeed="-1.00" length="-1.00" nVehEntered="0"/>
    <interval begin="0.00" end="42.00" id="myLoop10" nVehContrib="0" flow="0.00" occupancy="0.00" speed="-1.00" harmonicMeanSpeed="-1.00" length="-1.00" nVehEntered="0"/>
    <interval begin="0.00" end="42.00" id="myLoop11" nVehContrib="0" flow="0.00" occupancy="0.00" speed="-1.00" harmonicMeanSpeed="-1.00" length="-1.00" nVehEntered="0"/>
    <interval begin="0.00" end="42.00" id="myLoop12" nVehContrib="5" flow="428.57" occupancy="8.76" speed="6.93" harmonicMeanSpeed="6.79" length="5.00" nVehEntered="5"/>
    <interval begin="0.00" end="42.00" id="myLoop13" nVehContrib="0" flow="0.00" occupancy="0.00" speed="-1.00" harmonicMeanSpeed="-1.00" length="-1.00" nVehEntered="0"/>
    <interval begin="0.00" end="42.00" id="myLoop14" nVehContrib="3" flow="257.14" occupancy="2.57" speed="13.95" harmonicMeanSpeed="13.87" length="5.00" nVehEntered="3"/>
    <interval begin="0.00" end="42.00" id="myLoop15" nVehContrib="0" flow="0.00" occupancy="0.00" speed="-1.00" harmonicMeanSpeed="-1.00" length="-1.00" nVehEntered="0"/>
    <interval begin="42.00" end="84.00" id="myLoop0" nVehContrib="6" flow="514.29" occupancy="60.04" speed="5.98" harmonicMeanSpeed="0.69" length="5.00" nVehEntered="5"/>
    <interval begin="42.00" end="84.00" id="myLoop1" nVehContrib="6" flow="514.29" occupancy="47.07" speed="6.14" harmonicMeanSpeed="1.11" length="5.00" nVehEntered="6"/>
    <interval begin="42.00" end="84.00" id="myLoop2" nVehContrib="1" flow="85.71" occupancy="80.95" speed="11.40" harmonicMeanSpeed="11.40" length="5.00" nVehEntered="2"/>
    <interval begin="42.00" end="84.00" id="myLoop3" nVehContrib="0" flow="0.00" occupancy="60.19" speed="-1.00" harmonicMeanSpeed="-1.00" length="-1.00" nVehEntered="1"/>
    <interval begin="42.00" end="84.00" id="myLoop4" nVehContrib="6" flow="514.29" occupancy="73.11" speed="5.79" harmonicMeanSpeed="0.58" length="5.00" nVehEntered="6"/>
    <interval begin="42.00" end="84.00" id="myLoop5" nVehContrib="1" flow="85.71" occupancy="1.47" speed="8.08" harmonicMeanSpeed="8.08" length="5.00" nVehEntered="1"/>
    <interval begin="42.00" end="84.00" id="myLoop6" nVehContrib="0" flow="0.00" occupancy="100.00" speed="-1.00" harmonicMeanSpeed="-1.00" length="-1.00" nVehEntered="0"/>
    <interval begin="42.00" end="84.00" id="myLoop7" nVehContrib="0" flow="0.00" occupancy="100.00" speed="-1.00" harmonicMeanSpeed="-1.00" length="-1.00" nVehEntered="0"/>
    <interval begin="42.00" end="84.00" id="myLoop8" nVehContrib="3" flow="257.14" occupancy="2.93" speed="12.29" harmonicMeanSpeed="12.19" length="5.00" nVehEntered="3"/>
    <interval begin="42.00" end="84.00" id="myLoop9" nVehContrib="0" flow="0.00" occupancy="0.00" speed="-1.00" harmonicMeanSpeed="-1.00" length="-1.00" nVehEntered="0"/>
    <interval begin="42.00" end="84.00" id="myLoop10" nVehContrib="3" flow="257.14" occupancy="4.97" speed="7.22" harmonicMeanSpeed="7.19" length="5.00" nVehEntered="3"/>
    <interval begin="42.00" end="84.00" id="myLoop11" nVehContrib="1" flow="85.71" occupancy="1.38" speed="8.61" harmonicMeanSpeed="8.61" length="5.00" nVehEntered="1"/>
    <interval begin="42.00" end="84.00" id="myLoop12" nVehContrib="4" flow="342.86" occupancy="4.70" speed="10.54" harmonicMeanSpeed="10.14" length="5.00" nVehEntered="4"/>
    <interval begin="42.00" end="84.00" id="myLoop13" nVehContrib="0" flow="0.00" occupancy="0.00" speed="-1.00" harmonicMeanSpeed="-1.00" length="-1.00" nVehEntered="0"/>
    <interval begin="42.00" end="84.00" id="myLoop14" nVehContrib="4" flow="342.86" occupancy="5.54" speed="9.02" harmonicMeanSpeed="8.60" length="5.00" nVehEntered="4"/>
    <interval begin="42.00" end="84.00" id="myLoop15" nVehContrib="6" flow="514.29" occupancy="6.90" speed="10.42" harmonicMeanSpeed="10.35" length="5.00" nVehEntered="6"/>
    <interval begin="84.00" end="126.00" id="myLoop0" nVehContrib="2" flow="171.43" occupancy="57.02" speed="5.50" harmonicMeanSpeed="5.49" length="5.00" nVehEntered="3"/>
    <interval begin="84.00" end="126.00" id="myLoop1" nVehContrib="0" flow="0.00" occupancy="100.00" speed="-1.00" harmonicMeanSpeed="-1.00" length="-1.00" nVehEntered="0"/>
    <interval begin="84.00" end="126.00" id="myLoop2" nVehContrib="0" flow="0.00" occupancy="100.00" speed="-1.00" harmonicMeanSpeed="-1.00" length="-1.00" nVehEntered="0"/>
    <interval begin="84.00" end="126.00" id="myLoop3" nVehContrib="1" flow="85.71" occupancy="53.24" speed="0.10" harmonicMeanSpeed="0.10" length="5.00" nVehEntered="0"/>
    <interval begin="84.00" end="126.00" id="myLoop4" nVehContrib="4" flow="342.86" occupancy="8.23" speed="8.93" harmonicMeanSpeed="8.38" length="5.00" nVehEntered="4"/>
    <interval begin="84.00" end="126.00" id="myLoop5" nVehContrib="0" flow="0.00" occupancy="86.58" speed="-1.00" harmonicMeanSpeed="-1.00" length="-1.00" nVehEntered="1"/>
    <interval begin="84.00" end="126.00" id="myLoop6" nVehContrib="6" flow="514.29" occupancy="80.25" speed="4.89" harmonicMeanSpeed="0.35" length="5.00" nVehEntered="5"/>
    <interval begin="84.00" end="126.00" id="myLoop7" nVehContrib="6" flow="514.29" occupancy="61.15" speed="6.71" harmonicMeanSpeed="0.38" length="5.00" nVehEntered="5"/>
    <interval begin="84.00" end="126.00" id="myLoop8" nVehContrib="6" flow="514.29" occupancy="7.76" speed="10.07" harmonicMeanSpeed="9.21" length="5.00" nVehEntered="6"/>
    <interval begin="84.00" end="126.00" id="myLoop9" nVehContrib="1" flow="85.71" occupancy="1.43" speed="8.33" harmonicMeanSpeed="8.33" length="5.00" nVehEntered="1"/>
    <interval begin="84.00" end="126.00" id="myLoop10" nVehContrib="4" flow="342.86" occupancy="5.64" speed="9.12" harmonicMeanSpeed="8.45" length="5.00" nVehEntered="4"/>
    <interval begin="84.00" end="126.00" id="myLoop11" nVehContrib="0" flow="0.00" occupancy="0.00" speed="-1.00" harmonicMeanSpeed="-1.00" length="-1.00" nVehEntered="0"/>
    <interval begin="84.00" end="126.00" id="myLoop12" nVehContrib="0" flow="0.00" occupancy="0.00" speed="-1.00" harmonicMeanSpeed="-1.00" length="-1.00" nVehEntered="0"/>
    <interval begin="84.00" end="126.00" id="myLoop13" nVehContrib="6" flow="514.29" occupancy="7.16" speed="10.00" harmonicMeanSpeed="9.97" length="5.00" nVehEntered="6"/>
    <interval begin="84.00" end="126.00" id="myLoop14" nVehContrib="1" flow="85.71" occupancy="1.47" speed="8.11" harmonicMeanSpeed="8.11" length="5.00" nVehEntered="1"/>
    <interval begin="84.00" end="126.00" id="myLoop15" nVehContrib="0" flow="0.00" occupancy="0.00" speed="-1.00" harmonicMeanSpeed="-1.00" length="-1.00" nVehEntered="0"/>
    <interval begin="126.00" end="168.00" id="myLoop0" nVehContrib="0" flow="0.00" occupancy="100.00" speed="-1.00" harmonicMeanSpeed="-1.00" length="-1.00" nVehEntered="0"/>
    <interval begin="126.00" end="168.00" id="myLoop1" nVehContrib="0" flow="0.00" occupancy="100.00" speed="-1.00" harmonicMeanSpeed="-1.00" length="-1.00" nVehEntered="0"/>
    <interval begin="126.00" end="168.00" id="myLoop2" nVehContrib="9" flow="771.43" occupancy="24.29" speed="7.35" harmonicMeanSpeed="0.55" length="5.00" nVehEntered="9"/>
    <interval begin="126.00" end="168.00" id="myLoop3" nVehContrib="0" flow="0.00" occupancy="69.42" speed="-1.00" harmonicMeanSpeed="-1.00" length="-1.00" nVehEntered="1"/>
    <interval begin="126.00" end="168.00" id="myLoop4" nVehContrib="0" flow="0.00" occupancy="100.00" speed="-1.00" harmonicMeanSpeed="-1.00" length="-1.00" nVehEntered="0"/>
    <interval begin="126.00" end="168.00" id="myLoop5" nVehContrib="0" flow="0.00" occupancy="100.00" speed="-1.00" harmonicMeanSpeed="-1.00" length="-1.00" nVehEntered="0"/>
    <interval begin="126.00" end="168.00" id="myLoop6" nVehContrib="8" flow="685.71" occupancy="45.81" speed="7.88" harmonicMeanSpeed="7.13" length="5.00" nVehEntered="9"/>
    <interval begin="126.00" end="168.00" id="myLoop7" nVehContrib="0" flow="0.00" occupancy="81.17" speed="-1.00" harmonicMeanSpeed="-1.00" length="-1.00" nVehEntered="1"/>
    <interval begin="126.00" end="168.00" id="myLoop8" nVehContrib="6" flow="514.29" occupancy="9.69" speed="7.49" harmonicMeanSpeed="7.37" length="5.00" nVehEntered="6"/>
    <interval begin="126.00" end="168.00" id="myLoop9" nVehContrib="0" flow="0.00" occupancy="0.00" speed="-1.00" harmonicMeanSpeed="-1.00" length="-1.00" nVehEntered="0"/>
    <interval begin="126.00" end="168.00" id="myLoop10" nVehContrib="3" flow="257.14" occupancy="2.49" speed="14.34" harmonicMeanSpeed="14.33" length="5.00" nVehEntered="3"/>
    <interval begin="126.00" end="168.00" id="myLoop11" nVehContrib="0" flow="0.00" occupancy="0.00" speed="-1.00" harmonicMeanSpeed="-1.00" length="-1.00" nVehEntered="0"/>
    <interval begin="126.00" end="168.00" id="myLoop12" nVehContrib="4" flow="342.86" occupancy="6.41" speed="7.44" harmonicMeanSpeed="7.43" length="5.00" nVehEntered="4"/>
    <interval begin="126.00" end="168.00" id="myLoop13" nVehContrib="0" flow="0.00" occupancy="0.00" speed="-1.00" harmonicMeanSpeed="-1.00" length="-1.00" nVehEntered="0"/>
    <interval begin="126.00" end="168.00" id="myLoop14" nVehContrib="5" flow="428.57" occupancy="4.20" speed="14.29" harmonicMeanSpeed="14.17" length="5.00" nVehEntered="5"/>
    <interval begin="126.00" end="168.00" id="myLoop15" nVehContrib="0" flow="0.00" occupancy="0.00" speed="-1.00" harmonicMeanSpeed="-1.00" length="-1.00" nVehEntered="0"/>
    <interval begin="168.00" end="210.00" id="myLoop0" nVehContrib="10" flow="857.14" occupancy="46.12" speed="6.88" harmonicMeanSpeed="0.60" length="5.00" nVehEntered="9"/>
    <interval begin="168.00" end="210.00" id="myLoop1" nVehContrib="4" flow="342.86" occupancy="34.83" speed="5.37" harmonicMeanSpeed="0.21" length="5.00" nVehEntered="4"/>
    <interval begin="168.00" end="210.00" id="myLoop2" nVehContrib="0" flow="0.00" occupancy="100.00" speed="-1.00" harmonicMeanSpeed="-1.00" length="-1.00" nVehEntered="0"/>
    <interval begin="168.00" end="210.00" id="myLoop3" nVehContrib="0" flow="0.00" occupancy="100.00" speed="-1.00" harmonicMeanSpeed="-1.00" length="-1.00" nVehEntered="0"/>
    <interval begin="168.00" end="210.00" id="myLoop4" nVehContrib="10" flow="857.14" occupancy="52.67" speed="6.48" harmonicMeanSpeed="0.76" length="5.00" nVehEntered="9"/>
    <interval begin="168.00" end="210.00" id="myLoop5" nVehContrib="3" flow="257.14" occupancy="31.80" speed="4.49" harmonicMeanSpeed="0.19" length="5.00" nVehEntered="3"/>
    <interval begin="168.00" end="210.00" id="myLoop6" nVehContrib="0" flow="0.00" occupancy="100.00" speed="-1.00" harmonicMeanSpeed="-1.00" length="-1.00" nVehEntered="0"/>
    <interval begin="168.00" end="210.00" id="myLoop7" nVehContrib="0" flow="0.00" occupancy="100.00" speed="-1.00" harmonicMeanSpeed="-1.00" length="-1.00" nVehEntered="0"/>
    <interval begin="168.00" end="210.00" id="myLoop8" nVehContrib="4" flow="342.86" occupancy="3.93" speed="12.48" harmonicMeanSpeed="12.11" length="5.00" nVehEntered="4"/>
    <interval begin="168.00" end="210.00" id="myLoop9" nVehContrib="0" flow="0.00" occupancy="0.00" speed="-1.00" harmonicMeanSpeed="-1.00" length="-1.00" nVehEntered="0"/>
    <interval begin="168.00" end="210.00" id="myLoop10" nVehContrib="4" flow="342.86" occupancy="6.80" speed="7.03" harmonicMeanSpeed="7.01" length="5.00" nVehEntered="4"/>
    <interval begin="168.00" end="210.00" id="myLoop11" nVehContrib="3" flow="257.14" occupancy="3.49" speed="10.33" harmonicMeanSpeed="10.25" length="5.00" nVehEntered="3"/>
    <interval begin="168.00" end="210.00" id="myLoop12" nVehContrib="6" flow="514.29" occupancy="5.95" speed="12.34" harmonicMeanSpeed="12.00" length="5.00" nVehEntered="6"/>
    <interval begin="168.00" end="210.00" id="myLoop13" nVehContrib="0" flow="0.00" occupancy="0.00" speed="-1.00" harmonicMeanSpeed="-1.00" length="-1.00" nVehEntered="0"/>
    <interval begin="168.00" end="210.00" id="myLoop14" nVehContrib="6" flow="514.29" occupancy="9.17" speed="7.84" harmonicMeanSpeed="7.79" length="5.00" nVehEntered="6"/>
    <interval begin="168.00" end="210.00" id="myLoop15" nVehContrib="4" flow="342.86" occupancy="5.00" speed="9.62" harmonicMeanSpeed="9.53" length="5.00" nVehEntered="4"/>
    <interval begin="210.00" end="252.00" id="myLoop0" nVehContrib="1" flow="85.71" occupancy="85.80" speed="5.57" harmonicMeanSpeed="5.57" length="5.00" nVehEntered="2"/>
    <interval begin="210.00" end="252.00" id="myLoop1" nVehContrib="0" flow="0.00" occupancy="100.00" speed="-1.00" harmonicMeanSpeed="-1.00" length="-1.00" nVehEntered="0"/>
    <interval begin="210.00" end="252.00" id="myLoop2" nVehContrib="0" flow="0.00" occupancy="43.63" speed="-1.00" harmonicMeanSpeed="-1.00" length="-1.00" nVehEntered="2"/>
    <interval begin="210.00" end="252.00" id="myLoop3" nVehContrib="7" flow="600.00" occupancy="52.12" speed="4.96" harmonicMeanSpeed="0.38" length="5.00" nVehEntered="6"/>
    <interval begin="210.00" end="252.00" id="myLoop4" nVehContrib="4" flow="342.86" occupancy="60.59" speed="9.19" harmonicMeanSpeed="8.62" length="5.00" nVehEntered="5"/>
    <interval begin="210.00" end="252.00" id="myLoop5" nVehContrib="0" flow="0.00" occupancy="100.00" speed="-1.00" harmonicMeanSpeed="-1.00" length="-1.00" nVehEntered="0"/>
    <interval begin="210.00" end="252.00" id="myLoop6" nVehContrib="2" flow="171.43" occupancy="91.46" speed="2.74" harmonicMeanSpeed="0.11" length="5.00" nVehEntered="2"/>
    <interval begin="210.00" end="252.00" id="myLoop7" nVehContrib="11" flow="942.86" occupancy="53.13" speed="6.99" harmonicMeanSpeed="0.56" length="5.00" nVehEntered="10"/>
    <interval begin="210.00" end="252.00" id="myLoop8" nVehContrib="3" flow="257.14" occupancy="3.86" speed="12.40" harmonicMeanSpeed="11.04" length="5.00" nVehEntered="4"/>
    <interval begin="210.00" end="252.00" id="myLoop9" nVehContrib="7" flow="600.00" occupancy="9.42" speed="8.86" harmonicMeanSpeed="8.84" length="5.00" nVehEntered="7"/>
    <interval begin="210.00" end="252.00" id="myLoop10" nVehContrib="1" flow="85.71" occupancy="1.46" speed="8.15" harmonicMeanSpeed="8.15" length="5.00" nVehEntered="1"/>
    <interval begin="210.00" end="252.00" id="myLoop11" nVehContrib="0" flow="0.00" occupancy="0.00" speed="-1.00" harmonicMeanSpeed="-1.00" length="-1.00" nVehEntered="0"/>
    <interval begin="210.00" end="252.00" id="myLoop12" nVehContrib="0" flow="0.00" occupancy="0.00" speed="-1.00" harmonicMeanSpeed="-1.00" length="-1.00" nVehEntered="0"/>
    <interval begin="210.00" end="252.00" id="myLoop13" nVehContrib="10" flow="857.14" occupancy="11.83" speed="10.14" harmonicMeanSpeed="10.06" length="5.00" nVehEntered="10"/>
    <interval begin="210.00" end="252.00" id="myLoop14" nVehContrib="2" flow="171.43" occupancy="3.15" speed="7.62" harmonicMeanSpeed="7.57" length="5.00" nVehEntered="2"/>
    <interval begin="210.00" end="252.00" id="myLoop15" nVehContrib="0" flow="0.00" occupancy="0.00" speed="-1.00" harmonicMeanSpeed="-1.00" length="-1.00" nVehEntered="0"/>
    <interval begin="252.00" end="294.00" id="myLoop0" nVehContrib="0" flow="0.00" occupancy="100.00" speed="-1.00" harmonicMeanSpeed="-1.00" length="-1.00" nVehEntered="0"/>
    <interval begin="252.00" end="294.00" id="myLoop1" nVehContrib="0" flow="0.00" occupancy="100.00" speed="-1.00" harmonicMeanSpeed="-1.00" length="-1.00" nVehEntered="0"/>
    <interval begin="252.00" end="294.00" id="myLoop2" nVehContrib="12" flow="1028.57" occupancy="30.58" speed="7.39" harmonicMeanSpeed="1.93" length="5.00" nVehEntered="11"/>
    <interval begin="252.00" end="294.00" id="myLoop3" nVehContrib="0" flow="0.00" occupancy="37.48" speed="-1.00" harmonicMeanSpeed="-1.00" length="-1.00" nVehEntered="1"/>
    <interval begin="252.00" end="294.00" id="myLoop4" nVehContrib="0" flow="0.00" occupancy="100.00" speed="-1.00" harmonicMeanSpeed="-1.00" length="-1.00" nVehEntered="0"/>
    <interval begin="252.00" end="294.00" id="myLoop5" nVehContrib="0" flow="0.00" occupancy="100.00" speed="-1.00" harmonicMeanSpeed="-1.00" length="-1.00" nVehEntered="0"/>
    <interval begin="252.00" end="294.00" id="myLoop6" nVehContrib="10" flow="857.14" occupancy="21.64" speed="6.66" harmonicMeanSpeed="5.94" length="5.00" nVehEntered="10"/>
    <interval begin="252.00" end="294.00" id="myLoop7" nVehContrib="0" flow="0.00" occupancy="46.78" speed="-1.00" harmonicMeanSpeed="-1.00" length="-1.00" nVehEntered="1"/>
    <interval begin="252.00" end="294.00" id="myLoop8" nVehContrib="7" flow="600.00" occupancy="11.11" speed="7.18" harmonicMeanSpeed="7.10" length="5.00" nVehEntered="6"/>
    <interval begin="252.00" end="294.00" id="myLoop9" nVehContrib="0" flow="0.00" occupancy="0.00" speed="-1.00" harmonicMeanSpeed="-1.00" length="-1.00" nVehEntered="0"/>
    <interval begin="252.00" end="294.00" id="myLoop10" nVehContrib="4" flow="342.86" occupancy="3.67" speed="13.25" harmonicMeanSpeed="12.96" length="5.00" nVehEntered="4"/>
    <interval begin="252.00" end="294.00" id="myLoop11" nVehContrib="0" flow="0.00" occupancy="0.00" speed="-1.00" harmonicMeanSpeed="-1.00" length="-1.00" nVehEntered="0"/>
    <interval begin="252.00" end="294.00" id="myLoop12" nVehContrib="5" flow="428.57" occupancy="7.64" speed="7.91" harmonicMeanSpeed="7.79" length="5.00" nVehEntered="5"/>
    <interval begin="252.00" end="294.00" id="myLoop13" nVehContrib="1" flow="85.71" occupancy="0.94" speed="12.63" harmonicMeanSpeed="12.63" length="5.00" nVehEntered="1"/>
    <interval begin="252.00" end="294.00" id="myLoop14" nVehContrib="7" flow="600.00" occupancy="6.25" speed="13.47" harmonicMeanSpeed="13.33" length="5.00" nVehEntered="7"/>
    <interval begin="252.00" end="294.00" id="myLoop15" nVehContrib="0" flow="0.00" occupancy="0.00" speed="-1.00" harmonicMeanSpeed="-1.00" length="-1.00" nVehEntered="0"/>
    <interval begin="294.00" end="336.00" id="myLoop0" nVehContrib="6" flow="514.29" occupancy="56.04" speed="5.73" harmonicMeanSpeed="1.27" length="5.00" nVehEntered="6"/>
    <interval begin="294.00" end="336.00" id="myLoop1" nVehContrib="6" flow="514.29" occupancy="29.23" speed="5.16" harmonicMeanSpeed="0.28" length="5.00" nVehEntered="6"/>
    <interval begin="294.00" end="336.00" id="myLoop2" nVehContrib="1" flow="85.71" occupancy="84.73" speed="11.32" harmonicMeanSpeed="11.32" length="5.00" nVehEntered="2"/>
    <interval begin="294.00" end="336.00" id="myLoop3" nVehContrib="0" flow="0.00" occupancy="100.00" speed="-1.00" harmonicMeanSpeed="-1.00" length="-1.00" nVehEntered="0"/>
    <interval begin="294.00" end="336.00" id="myLoop4" nVehContrib="7" flow="600.00" occupancy="47.85" speed="7.57" harmonicMeanSpeed="1.74" length="5.00" nVehEntered="7"/>
    <interval begin="294.00" end="336.00" id="myLoop5" nVehContrib="7" flow="600.00" occupancy="38.16" speed="5.34" harmonicMeanSpeed="0.33" length="5.00" nVehEntered="7"/>
    <interval begin="294.00" end="336.00" id="myLoop6" nVehContrib="0" flow="0.00" occupancy="100.00" speed="-1.00" harmonicMeanSpeed="-1.00" length="-1.00" nVehEntered="0"/>
    <interval begin="294.00" end="336.00" id="myLoop7" nVehContrib="0" flow="0.00" occupancy="100.00" speed="-1.00" harmonicMeanSpeed="-1.00" length="-1.00" nVehEntered="0"/>
    <interval begin="294.00" end="336.00" id="myLoop8" nVehContrib="4" flow="342.86" occupancy="3.78" speed="12.78" harmonicMeanSpeed="12.58" length="5.00" nVehEntered="4"/>
    <interval begin="294.00" end="336.00" id="myLoop9" nVehContrib="0" flow="0.00" occupancy="0.00" speed="-1.00" harmonicMeanSpeed="-1.00" length="-1.00" nVehEntered="0"/>
    <interval begin="294.00" end="336.00" id="myLoop10" nVehContrib="2" flow="171.43" occupancy="3.52" speed="6.77" harmonicMeanSpeed="6.76" length="5.00" nVehEntered="2"/>
    <interval begin="294.00" end="336.00" id="myLoop11" nVehContrib="7" flow="600.00" occupancy="8.28" speed="10.15" harmonicMeanSpeed="10.07" length="5.00" nVehEntered="7"/>
    <interval begin="294.00" end="336.00" id="myLoop12" nVehContrib="3" flow="257.14" occupancy="3.28" speed="11.03" harmonicMeanSpeed="10.90" length="5.00" nVehEntered="3"/>
    <interval begin="294.00" end="336.00" id="myLoop13" nVehContrib="0" flow="0.00" occupancy="0.00" speed="-1.00" harmonicMeanSpeed="-1.00" length="-1.00" nVehEntered="0"/>
    <interval begin="294.00" end="336.00" id="myLoop14" nVehContrib="3" flow="257.14" occupancy="4.07" speed="10.20" harmonicMeanSpeed="8.77" length="5.00" nVehEntered="3"/>
    <interval begin="294.00" end="336.00" id="myLoop15" nVehContrib="6" flow="514.29" occupancy="7.53" speed="9.52" harmonicMeanSpeed="9.49" length="5.00" nVehEntered="6"/>
    <interval begin="336.00" end="378.00" id="myLoop0" nVehContrib="8" flow="685.71" occupancy="29.58" speed="7.69" harmonicMeanSpeed="7.22" length="5.00" nVehEntered="9"/>
    <interval begin="336.00" end="378.00" id="myLoop1" nVehContrib="0" flow="0.00" occupancy="100.00" speed="-1.00" harmonicMeanSpeed="-1.00" length="-1.00" nVehEntered="0"/>
    <interval begin="336.00" end="378.00" id="myLoop2" nVehContrib="0" flow="0.00" occupancy="24.46" speed="-1.00" harmonicMeanSpeed="-1.00" length="-1.00" nVehEntered="1"/>
    <interval begin="336.00" end="378.00" id="myLoop3" nVehContrib="6" flow="514.29" occupancy="78.83" speed="5.43" harmonicMeanSpeed="0.33" length="5.00" nVehEntered="5"/>
    <interval begin="336.00" end="378.00" id="myLoop4" nVehContrib="4" flow="342.86" occupancy="46.50" speed="10.12" harmonicMeanSpeed="9.00" length="5.00" nVehEntered="5"/>
    <interval begin="336.00" end="378.00" id="myLoop5" nVehContrib="0" flow="0.00" occupancy="100.00" speed="-1.00" harmonicMeanSpeed="-1.00" length="-1.00" nVehEntered="0"/>
    <interval begin="336.00" end="378.00" id="myLoop6" nVehContrib="0" flow="0.00" occupancy="100.00" speed="-1.00" harmonicMeanSpeed="-1.00" length="-1.00" nVehEntered="0"/>
    <interval begin="336.00" end="378.00" id="myLoop7" nVehContrib="4" flow="342.86" occupancy="73.00" speed="5.38" harmonicMeanSpeed="0.22" length="5.00" nVehEntered="3"/>
    <interval begin="336.00" end="378.00" id="myLoop8" nVehContrib="4" flow="342.86" occupancy="3.19" speed="14.95" harmonicMeanSpeed="14.94" length="5.00" nVehEntered="4"/>
    <interval begin="336.00" end="378.00" id="myLoop9" nVehContrib="5" flow="428.57" occupancy="5.31" speed="11.28" harmonicMeanSpeed="11.20" length="5.00" nVehEntered="5"/>
    <interval begin="336.00" end="378.00" id="myLoop10" nVehContrib="6" flow="514.29" occupancy="9.70" speed="7.43" harmonicMeanSpeed="7.37" length="5.00" nVehEntered="6"/>
    <interval begin="336.00" end="378.00" id="myLoop11" nVehContrib="0" flow="0.00" occupancy="0.00" speed="-1.00" harmonicMeanSpeed="-1.00" length="-1.00" nVehEntered="0"/>
    <interval begin="336.00" end="378.00" id="myLoop12" nVehContrib="3" flow="257.14" occupancy="2.46" speed="14.59" harmonicMeanSpeed="14.54" length="5.00" nVehEntered="3"/>
    <interval begin="336.00" end="378.00" id="myLoop13" nVehContrib="4" flow="342.86" occupancy="4.62" speed="10.40" harmonicMeanSpeed="10.32" length="5.00" nVehEntered="4"/>
    <interval begin="336.00" end="378.00" id="myLoop14" nVehContrib="1" flow="85.71" occupancy="1.63" speed="7.30" harmonicMeanSpeed="7.30" length="5.00" nVehEntered="1"/>
    <interval begin="336.00" end="378.00" id="myLoop15" nVehContrib="0" flow="0.00" occupancy="0.00" speed="-1.00" harmonicMeanSpeed="-1.00" length="-1.00" nVehEntered="0"/>
    <interval begin="378.00" end="420.00" id="myLoop0" nVehContrib="0" flow="0.00" occupancy="100.00" speed="-1.00" harmonicMeanSpeed="-1.00" length="-1.00" nVehEntered="0"/>
    <interval begin="378.00" end="420.00" id="myLoop1" nVehContrib="0" flow="0.00" occupancy="100.00" speed="-1.00" harmonicMeanSpeed="-1.00" length="-1.00" nVehEntered="0"/>
    <interval begin="378.00" end="420.00" id="myLoop2" nVehContrib="13" flow="1114.29" occupancy="21.07" speed="8.33" harmonicMeanSpeed="3.43" length="5.00" nVehEntered="13"/>
    <interval begin="378.00" end="420.00" id="myLoop3" nVehContrib="0" flow="0.00" occupancy="45.69" speed="-1.00" harmonicMeanSpeed="-1.00" length="-1.00" nVehEntered="1"/>
    <interval begin="378.00" end="420.00" id="myLoop4" nVehContrib="0" flow="0.00" occupancy="100.00" speed="-1.00" harmonicMeanSpeed="-1.00" length="-1.00" nVehEntered="0"/>
    <interval begin="378.00" end="420.00" id="myLoop5" nVehContrib="0" flow="0.00" occupancy="100.00" speed="-1.00" harmonicMeanSpeed="-1.00" length="-1.00" nVehEntered="0"/>
    <interval begin="378.00" end="420.00" id="myLoop6" nVehContrib="8" flow="685.71" occupancy="29.45" speed="5.93" harmonicMeanSpeed="0.41" length="5.00" nVehEntered="8"/>
    <interval begin="378.00" end="420.00" id="myLoop7" nVehContrib="0" flow="0.00" occupancy="50.25" speed="-1.00" harmonicMeanSpeed="-1.00" length="-1.00" nVehEntered="1"/>
    <interval begin="378.00" end="420.00" id="myLoop8" nVehContrib="5" flow="428.57" occupancy="7.41" speed="8.11" harmonicMeanSpeed="8.03" length="5.00" nVehEntered="5"/>
    <interval begin="378.00" end="420.00" id="myLoop9" nVehContrib="1" flow="85.71" occupancy="1.25" speed="9.49" harmonicMeanSpeed="9.49" length="5.00" nVehEntered="1"/>
    <interval begin="378.00" end="420.00" id="myLoop10" nVehContrib="3" flow="257.14" occupancy="2.80" speed="12.92" harmonicMeanSpeed="12.74" length="5.00" nVehEntered="3"/>
    <interval begin="378.00" end="420.00" id="myLoop11" nVehContrib="0" flow="0.00" occupancy="0.00" speed="-1.00" harmonicMeanSpeed="-1.00" length="-1.00" nVehEntered="0"/>
    <interval begin="378.00" end="420.00" id="myLoop12" nVehContrib="5" flow="428.57" occupancy="8.56" speed="7.00" harmonicMeanSpeed="6.95" length="5.00" nVehEntered="5"/>
    <interval begin="378.00" end="420.00" id="myLoop13" nVehContrib="0" flow="0.00" occupancy="0.00" speed="-1.00" harmonicMeanSpeed="-1.00" length="-1.00" nVehEntered="0"/>
    <interval begin="378.00" end="420.00" id="myLoop14" nVehContrib="8" flow="685.71" occupancy="6.91" speed="13.88" harmonicMeanSpeed="13.78" length="5.00" nVehEntered="8"/>
    <interval begin="378.00" end="420.00" id="myLoop15" nVehContrib="0" flow="0.00" occupancy="0.00" speed="-1.00" harmonicMeanSpeed="-1.00" length="-1.00" nVehEntered="0"/>
    <interval begin="420.00" end="462.00" id="myLoop0" nVehContrib="7" flow="600.00" occupancy="42.89" speed="6.21" harmonicMeanSpeed="1.94" length="5.00" nVehEntered="7"/>
    <interval begin="420.00" end="462.00" id="myLoop1" nVehContrib="5" flow="428.57" occupancy="41.65" speed="4.79" harmonicMeanSpeed="0.26" length="5.00" nVehEntered="5"/>
    <interval begin="420.00" end="462.00" id="myLoop2" nVehContrib="0" flow="0.00" occupancy="100.00" speed="-1.00" harmonicMeanSpeed="-1.00" length="-1.00" nVehEntered="0"/>
    <interval begin="420.00" end="462.00" id="myLoop3" nVehContrib="0" flow="0.00" occupancy="100.00" speed="-1.00" harmonicMeanSpeed="-1.00" length="-1.00" nVehEntered="0"/>
    <interval begin="420.00" end="462.00" id="myLoop4" nVehContrib="7" flow="600.00" occupancy="47.56" speed="4.97" harmonicMeanSpeed="1.75" length="5.00" nVehEntered="7"/>
    <interval begin="420.00" end="462.00" id="myLoop5" nVehContrib="5" flow="428.57" occupancy="39.69" speed="4.70" harmonicMeanSpeed="0.25" length="5.00" nVehEntered="5"/>
    <interval begin="420.00" end="462.00" id="myLoop6" nVehContrib="0" flow="0.00" occupancy="100.00" speed="-1.00" harmonicMeanSpeed="-1.00" length="-1.00" nVehEntered="0"/>
    <interval begin="420.00" end="462.00" id="myLoop7" nVehContrib="0" flow="0.00" occupancy="100.00" speed="-1.00" harmonicMeanSpeed="-1.00" length="-1.00" nVehEntered="0"/>