<?xml version="1.0" encoding="UTF-8"?>

<!-- generated on Sat Apr 18 22:06:39 2020 by Eclipse SUMO GUI Version 1.5.0
<configuration xmlns:xsi="http://www.w3.org/2001/XMLSchema-instance" xsi:noNamespaceSchemaLocation="http://sumo.dlr.de/xsd/sumoConfiguration.xsd">

    <input>
        <net-file value="my_net.net.xml"/>
        <route-files value="my_route.rou.xml"/>
        <additional-files value="demo.add.xml"/>
    </input>

    <output>
        <tripinfo-output value="tripinfo.xml"/>
    </output>

    <time>
        <begin value="0"/>
        <end value="2000"/>
    </time>

    <traci_server>
        <remote-port value="52866"/>
    </traci_server>

</configuration>
-->

<detector xmlns:xsi="http://www.w3.org/2001/XMLSchema-instance" xsi:noNamespaceSchemaLocation="http://sumo.dlr.de/xsd/det_e1_file.xsd">
    <interval begin="0.00" end="42.00" id="myLoop0" nVehContrib="1" flow="85.71" occupancy="19.51" speed="1.32" harmonicMeanSpeed="1.32" length="5.00" nVehEntered="2"/>
    <interval begin="0.00" end="42.00" id="myLoop1" nVehContrib="2" flow="171.43" occupancy="2.72" speed="8.75" harmonicMeanSpeed="8.75" length="5.00" nVehEntered="2"/>
    <interval begin="0.00" end="42.00" id="myLoop2" nVehContrib="1" flow="85.71" occupancy="74.04" speed="5.48" harmonicMeanSpeed="5.48" length="5.00" nVehEntered="2"/>
    <interval begin="0.00" end="42.00" id="myLoop3" nVehContrib="0" flow="0.00" occupancy="0.00" speed="-1.00" harmonicMeanSpeed="-1.00" length="-1.00" nVehEntered="0"/>
    <interval begin="0.00" end="42.00" id="myLoop4" nVehContrib="2" flow="171.43" occupancy="44.70" speed="2.88" harmonicMeanSpeed="0.53" length="5.00" nVehEntered="2"/>
    <interval begin="0.00" end="42.00" id="myLoop5" nVehContrib="0" flow="0.00" occupancy="0.00" speed="-1.00" harmonicMeanSpeed="-1.00" length="-1.00" nVehEntered="0"/>
    <interval begin="0.00" end="42.00" id="myLoop6" nVehContrib="2" flow="171.43" occupancy="25.80" speed="6.30" harmonicMeanSpeed="6.30" length="5.00" nVehEntered="3"/>
    <interval begin="0.00" end="42.00" id="myLoop7" nVehContrib="0" flow="0.00" occupancy="27.15" speed="-1.00" harmonicMeanSpeed="-1.00" length="-1.00" nVehEntered="1"/>
    <interval begin="0.00" end="42.00" id="myLoop8" nVehContrib="2" flow="171.43" occupancy="3.04" speed="7.93" harmonicMeanSpeed="7.82" length="5.00" nVehEntered="2"/>
    <interval begin="0.00" end="42.00" id="myLoop9" nVehContrib="0" flow="0.00" occupancy="0.00" speed="-1.00" harmonicMeanSpeed="-1.00" length="-1.00" nVehEntered="0"/>
    <interval begin="0.00" end="42.00" id="myLoop10" nVehContrib="0" flow="0.00" occupancy="0.00" speed="-1.00" harmonicMeanSpeed="-1.00" length="-1.00" nVehEntered="0"/>
    <interval begin="0.00" end="42.00" id="myLoop11" nVehContrib="0" flow="0.00" occupancy="0.00" speed="-1.00" harmonicMeanSpeed="-1.00" length="-1.00" nVehEntered="0"/>
    <interval begin="0.00" end="42.00" id="myLoop12" nVehContrib="2" flow="171.43" occupancy="3.53" speed="6.77" harmonicMeanSpeed="6.75" length="5.00" nVehEntered="2"/>
    <interval begin="0.00" end="42.00" id="myLoop13" nVehContrib="0" flow="0.00" occupancy="0.00" speed="-1.00" harmonicMeanSpeed="-1.00" length="-1.00" nVehEntered="0"/>
    <interval begin="0.00" end="42.00" id="myLoop14" nVehContrib="1" flow="85.71" occupancy="1.41" speed="8.44" harmonicMeanSpeed="8.44" length="5.00" nVehEntered="1"/>
    <interval begin="0.00" end="42.00" id="myLoop15" nVehContrib="2" flow="171.43" occupancy="2.28" speed="10.44" harmonicMeanSpeed="10.44" length="5.00" nVehEntered="2"/>
    <interval begin="42.00" end="84.00" id="myLoop0" nVehContrib="0" flow="0.00" occupancy="100.00" speed="-1.00" harmonicMeanSpeed="-1.00" length="-1.00" nVehEntered="0"/>
    <interval begin="42.00" end="84.00" id="myLoop1" nVehContrib="0" flow="0.00" occupancy="88.94" speed="-1.00" harmonicMeanSpeed="-1.00" length="-1.00" nVehEntered="1"/>
    <interval begin="42.00" end="84.00" id="myLoop2" nVehContrib="1" flow="85.71" occupancy="94.97" speed="0.13" harmonicMeanSpeed="0.13" length="5.00" nVehEntered="1"/>
    <interval begin="42.00" end="84.00" id="myLoop3" nVehContrib="0" flow="0.00" occupancy="0.00" speed="-1.00" harmonicMeanSpeed="-1.00" length="-1.00" nVehEntered="0"/>
    <interval begin="42.00" end="84.00" id="myLoop4" nVehContrib="0" flow="0.00" occupancy="65.06" speed="-1.00" harmonicMeanSpeed="-1.00" length="-1.00" nVehEntered="1"/>
    <interval begin="42.00" end="84.00" id="myLoop5" nVehContrib="0" flow="0.00" occupancy="66.84" speed="-1.00" harmonicMeanSpeed="-1.00" length="-1.00" nVehEntered="1"/>
    <interval begin="42.00" end="84.00" id="myLoop6" nVehContrib="4" flow="342.86" occupancy="49.63" speed="4.98" harmonicMeanSpeed="0.84" length="5.00" nVehEntered="4"/>
    <interval begin="42.00" end="84.00" id="myLoop7" nVehContrib="1" flow="85.71" occupancy="94.11" speed="0.28" harmonicMeanSpeed="0.28" length="5.00" nVehEntered="1"/>
    <interval begin="42.00" end="84.00" id="myLoop8" nVehContrib="3" flow="257.14" occupancy="4.16" speed="8.85" harmonicMeanSpeed="8.58" length="5.00" nVehEntered="3"/>
    <interval begin="42.00" end="84.00" id="myLoop9" nVehContrib="0" flow="0.00" occupancy="0.00" speed="-1.00" harmonicMeanSpeed="-1.00" length="-1.00" nVehEntered="0"/>
    <interval begin="42.00" end="84.00" id="myLoop10" nVehContrib="2" flow="171.43" occupancy="1.96" speed="12.19" harmonicMeanSpeed="12.16" length="5.00" nVehEntered="2"/>
    <interval begin="42.00" end="84.00" id="myLoop11" nVehContrib="0" flow="0.00" occupancy="0.00" speed="-1.00" harmonicMeanSpeed="-1.00" length="-1.00" nVehEntered="0"/>
    <interval begin="42.00" end="84.00" id="myLoop12" nVehContrib="1" flow="85.71" occupancy="4.73" speed="2.52" harmonicMeanSpeed="2.52" length="5.00" nVehEntered="1"/>
    <interval begin="42.00" end="84.00" id="myLoop13" nVehContrib="1" flow="85.71" occupancy="1.83" speed="6.51" harmonicMeanSpeed="6.51" length="5.00" nVehEntered="1"/>
    <interval begin="42.00" end="84.00" id="myLoop14" nVehContrib="0" flow="0.00" occupancy="0.00" speed="-1.00" harmonicMeanSpeed="-1.00" length="-1.00" nVehEntered="0"/>
    <interval begin="42.00" end="84.00" id="myLoop15" nVehContrib="0" flow="0.00" occupancy="0.00" speed="-1.00" harmonicMeanSpeed="-1.00" length="-1.00" nVehEntered="0"/>
    <interval begin="84.00" end="126.00" id="myLoop0" nVehContrib="1" flow="85.71" occupancy="95.30" speed="0.08" harmonicMeanSpeed="0.08" length="5.00" nVehEntered="1"/>
    <interval begin="84.00" end="126.00" id="myLoop1" nVehContrib="6" flow="514.29" occupancy="37.66" speed="5.90" harmonicMeanSpeed="0.56" length="5.00" nVehEntered="5"/>
    <interval begin="84.00" end="126.00" id="myLoop2" nVehContrib="0" flow="0.00" occupancy="100.00" speed="-1.00" harmonicMeanSpeed="-1.00" length="-1.00" nVehEntered="0"/>
    <interval begin="84.00" end="126.00" id="myLoop3" nVehContrib="0" flow="0.00" occupancy="0.00" speed="-1.00" harmonicMeanSpeed="-1.00" length="-1.00" nVehEntered="0"/>
    <interval begin="84.00" end="126.00" id="myLoop4" nVehContrib="2" flow="171.43" occupancy="94.24" speed="2.76" harmonicMeanSpeed="0.15" length="5.00" nVehEntered="1"/>
    <interval begin="84.00" end="126.00" id="myLoop5" nVehContrib="1" flow="85.71" occupancy="29.24" speed="0.12" harmonicMeanSpeed="0.12" length="5.00" nVehEntered="0"/>
    <interval begin="84.00" end="126.00" id="myLoop6" nVehContrib="0" flow="0.00" occupancy="100.00" speed="-1.00" harmonicMeanSpeed="-1.00" length="-1.00" nVehEntered="0"/>
    <interval begin="84.00" end="126.00" id="myLoop7" nVehContrib="0" flow="0.00" occupancy="100.00" speed="-1.00" harmonicMeanSpeed="-1.00" length="-1.00" nVehEntered="0"/>
    <interval begin="84.00" end="126.00" id="myLoop8" nVehContrib="0" flow="0.00" occupancy="0.00" speed="-1.00" harmonicMeanSpeed="-1.00" length="-1.00" nVehEntered="0"/>
    <interval begin="84.00" end="126.00" id="myLoop9" nVehContrib="0" flow="0.00" occupancy="0.00" speed="-1.00" harmonicMeanSpeed="-1.00" length="-1.00" nVehEntered="0"/>
    <interval begin="84.00" end="126.00" id="myLoop10" nVehContrib="1" flow="85.71" occupancy="1.84" speed="6.46" harmonicMeanSpeed="6.46" length="5.00" nVehEntered="1"/>
    <interval begin="84.00" end="126.00" id="myLoop11" nVehContrib="1" flow="85.71" occupancy="1.34" speed="8.86" harmonicMeanSpeed="8.86" length="5.00" nVehEntered="1"/>
    <interval begin="84.00" end="126.00" id="myLoop12" nVehContrib="0" flow="0.00" occupancy="0.00" speed="-1.00" harmonicMeanSpeed="-1.00" length="-1.00" nVehEntered="0"/>
    <interval begin="84.00" end="126.00" id="myLoop13" nVehContrib="0" flow="0.00" occupancy="0.00" speed="-1.00" harmonicMeanSpeed="-1.00" length="-1.00" nVehEntered="0"/>
    <interval begin="84.00" end="126.00" id="myLoop14" nVehContrib="0" flow="0.00" occupancy="0.00" speed="-1.00" harmonicMeanSpeed="-1.00" length="-1.00" nVehEntered="0"/>
    <interval begin="84.00" end="126.00" id="myLoop15" nVehContrib="6" flow="514.29" occupancy="7.53" speed="9.64" harmonicMeanSpeed="9.49" length="5.00" nVehEntered="6"/>
    <interval begin="126.00" end="168.00" id="myLoop0" nVehContrib="0" flow="0.00" occupancy="100.00" speed="-1.00" harmonicMeanSpeed="-1.00" length="-1.00" nVehEntered="0"/>
    <interval begin="126.00" end="168.00" id="myLoop1" nVehContrib="0" flow="0.00" occupancy="0.00" speed="-1.00" harmonicMeanSpeed="-1.00" length="-1.00" nVehEntered="0"/>
    <interval begin="126.00" end="168.00" id="myLoop2" nVehContrib="0" flow="0.00" occupancy="100.00" speed="-1.00" harmonicMeanSpeed="-1.00" length="-1.00" nVehEntered="0"/>
    <interval begin="126.00" end="168.00" id="myLoop3" nVehContrib="0" flow="0.00" occupancy="0.00" speed="-1.00" harmonicMeanSpeed="-1.00" length="-1.00" nVehEntered="0"/>
    <interval begin="126.00" end="168.00" id="myLoop4" nVehContrib="12" flow="1028.57" occupancy="25.77" speed="7.26" harmonicMeanSpeed="6.79" length="5.00" nVehEntered="13"/>
    <interval begin="126.00" end="168.00" id="myLoop5" nVehContrib="0" flow="0.00" occupancy="70.91" speed="-1.00" harmonicMeanSpeed="-1.00" length="-1.00" nVehEntered="1"/>
    <interval begin="126.00" end="168.00" id="myLoop6" nVehContrib="0" flow="0.00" occupancy="0.00" speed="-1.00" harmonicMeanSpeed="-1.00" length="-1.00" nVehEntered="0"/>
    <interval begin="126.00" end="168.00" id="myLoop7" nVehContrib="1" flow="85.71" occupancy="98.30" speed="0.04" harmonicMeanSpeed="0.04" length="5.00" nVehEntered="1"/>
    <interval begin="126.00" end="168.00" id="myLoop8" nVehContrib="7" flow="600.00" occupancy="6.82" speed="12.34" harmonicMeanSpeed="12.22" length="5.00" nVehEntered="7"/>
    <interval begin="126.00" end="168.00" id="myLoop9" nVehContrib="0" flow="0.00" occupancy="0.00" speed="-1.00" harmonicMeanSpeed="-1.00" length="-1.00" nVehEntered="0"/>
    <interval begin="126.00" end="168.00" id="myLoop10" nVehContrib="0" flow="0.00" occupancy="0.00" speed="-1.00" harmonicMeanSpeed="-1.00" length="-1.00" nVehEntered="0"/>
    <interval begin="126.00" end="168.00" id="myLoop11" nVehContrib="0" flow="0.00" occupancy="0.00" speed="-1.00" harmonicMeanSpeed="-1.00" length="-1.00" nVehEntered="0"/>
    <interval begin="126.00" end="168.00" id="myLoop12" nVehContrib="0" flow="0.00" occupancy="0.00" speed="-1.00" harmonicMeanSpeed="-1.00" length="-1.00" nVehEntered="0"/>
    <interval begin="126.00" end="168.00" id="myLoop13" nVehContrib="0" flow="0.00" occupancy="0.00" speed="-1.00" harmonicMeanSpeed="-1.00" length="-1.00" nVehEntered="0"/>
    <interval begin="126.00" end="168.00" id="myLoop14" nVehContrib="7" flow="600.00" occupancy="11.80" speed="7.13" harmonicMeanSpeed="7.06" length="5.00" nVehEntered="7"/>
    <interval begin="126.00" end="168.00" id="myLoop15" nVehContrib="0" flow="0.00" occupancy="0.00" speed="-1.00" harmonicMeanSpeed="-1.00" length="-1.00" nVehEntered="0"/>
    <interval begin="168.00" end="201.00" id="myLoop0" nVehContrib="0" flow="0.00" occupancy="100.00" speed="-1.00" harmonicMeanSpeed="-1.00" length="-1.00" nVehEntered="0"/>
    <interval begin="168.00" end="201.00" id="myLoop1" nVehContrib="0" flow="0.00" occupancy="0.00" speed="-1.00" harmonicMeanSpeed="-1.00" length="-1.00" nVehEntered="0"/>
    <interval begin="168.00" end="201.00" id="myLoop2" nVehContrib="0" flow="0.00" occupancy="100.00" speed="-1.00" harmonicMeanSpeed="-1.00" length="-1.00" nVehEntered="0"/>
    <interval begin="168.00" end="201.00" id="myLoop3" nVehContrib="0" flow="0.00" occupancy="0.00" speed="-1.00" harmonicMeanSpeed="-1.00" length="-1.00" nVehEntered="0"/>
    <interval begin="168.00" end="201.00" id="myLoop4" nVehContrib="0" flow="0.00" occupancy="100.00" speed="-1.00" harmonicMeanSpeed="-1.00" length="-1.00" nVehEntered="0"/>
    <interval begin="168.00" end="201.00" id="myLoop5" nVehContrib="0" flow="0.00" occupancy="100.00" speed="-1.00" harmonicMeanSpeed="-1.00" length="-1.00" nVehEntered="0"/>
    <interval begin="168.00" end="201.00" id="myLoop6" nVehContrib="11" flow="1200.00" occupancy="26.47" speed="6.87" harmonicMeanSpeed="6.30" length="5.00" nVehEntered="11"/>
    <interval begin="168.00" end="201.00" id="myLoop7" nVehContrib="7" flow="763.64" occupancy="11.38" speed="7.33" harmonicMeanSpeed="6.08" length="5.00" nVehEntered="6"/>
    <interval begin="168.00" end="201.00" id="myLoop8" nVehContrib="7" flow="763.64" occupancy="14.88" speed="7.25" harmonicMeanSpeed="7.13" length="5.00" nVehEntered="7"/>
    <interval begin="168.00" end="201.00" id="myLoop9" nVehContrib="0" flow="0.00" occupancy="0.00" speed="-1.00" harmonicMeanSpeed="-1.00" length="-1.00" nVehEntered="0"/>
    <interval begin="168.00" end="201.00" id="myLoop10" nVehContrib="3" flow="327.27" occupancy="3.19" speed="14.27" harmonicMeanSpeed="14.24" length="5.00" nVehEntered="3"/>
    <interval begin="168.00" end="201.00" id="myLoop11" nVehContrib="0" flow="0.00" occupancy="0.00" speed="-1.00" harmonicMeanSpeed="-1.00" length="-1.00" nVehEntered="0"/>
    <interval begin="168.00" end="201.00" id="myLoop12" nVehContrib="0" flow="0.00" occupancy="0.00" speed="-1.00" harmonicMeanSpeed="-1.00" length="-1.00" nVehEntered="0"/>
    <interval begin="168.00" end="201.00" id="myLoop13" nVehContrib="7" flow="763.64" occupancy="10.68" speed="10.34" harmonicMeanSpeed="10.28" length="5.00" nVehEntered="8"/>
    <interval begin="168.00" end="201.00" id="myLoop14" nVehContrib="0" flow="0.00" occupancy="0.00" speed="-1.00" harmonicMeanSpeed="-1.00" length="-1.00" nVehEntered="0"/>
    <interval begin="168.00" end="201.00" id="myLoop15" nVehContrib="0" flow="0.00" occupancy="0.00" speed="-1.00" harmonicMeanSpeed="-1.00" length="-1.00" nVehEntered="0"/>
</detector>
