<?xml version="1.0" encoding="UTF-8"?>

<!-- generated on Sat Apr 18 00:17:44 2020 by Eclipse SUMO GUI Version 1.5.0
<configuration xmlns:xsi="http://www.w3.org/2001/XMLSchema-instance" xsi:noNamespaceSchemaLocation="http://sumo.dlr.de/xsd/sumoConfiguration.xsd">

    <input>
        <net-file value="my_net.net.xml"/>
        <route-files value="my_route.rou.xml"/>
        <additional-files value="demo.add.xml"/>
    </input>

    <output>
        <tripinfo-output value="tripinfo.xml"/>
    </output>

    <time>
        <begin value="0"/>
        <end value="2000"/>
    </time>

    <traci_server>
        <remote-port value="60004"/>
    </traci_server>

</configuration>
-->

<detector xmlns:xsi="http://www.w3.org/2001/XMLSchema-instance" xsi:noNamespaceSchemaLocation="http://sumo.dlr.de/xsd/det_e1_file.xsd">
    <interval begin="0.00" end="42.00" id="myLoop0" nVehContrib="0" flow="0.00" occupancy="62.48" speed="-1.00" harmonicMeanSpeed="-1.00" length="-1.00" nVehEntered="1"/>
    <interval begin="0.00" end="42.00" id="myLoop1" nVehContrib="0" flow="0.00" occupancy="0.00" speed="-1.00" harmonicMeanSpeed="-1.00" length="-1.00" nVehEntered="0"/>
    <interval begin="0.00" end="42.00" id="myLoop2" nVehContrib="2" flow="171.43" occupancy="35.01" speed="5.59" harmonicMeanSpeed="0.70" length="5.00" nVehEntered="3"/>
    <interval begin="0.00" end="42.00" id="myLoop3" nVehContrib="1" flow="85.71" occupancy="50.38" speed="8.40" harmonicMeanSpeed="8.40" length="5.00" nVehEntered="2"/>
    <interval begin="0.00" end="42.00" id="myLoop4" nVehContrib="0" flow="0.00" occupancy="59.39" speed="-1.00" harmonicMeanSpeed="-1.00" length="-1.00" nVehEntered="1"/>
    <interval begin="0.00" end="42.00" id="myLoop5" nVehContrib="0" flow="0.00" occupancy="80.27" speed="-1.00" harmonicMeanSpeed="-1.00" length="-1.00" nVehEntered="1"/>
    <interval begin="0.00" end="42.00" id="myLoop6" nVehContrib="7" flow="600.00" occupancy="13.68" speed="7.42" harmonicMeanSpeed="6.09" length="5.00" nVehEntered="7"/>
    <interval begin="0.00" end="42.00" id="myLoop7" nVehContrib="3" flow="257.14" occupancy="3.87" speed="9.23" harmonicMeanSpeed="9.22" length="5.00" nVehEntered="3"/>
    <interval begin="0.00" end="42.00" id="myLoop8" nVehContrib="3" flow="257.14" occupancy="4.70" speed="7.64" harmonicMeanSpeed="7.61" length="5.00" nVehEntered="3"/>
    <interval begin="0.00" end="42.00" id="myLoop9" nVehContrib="1" flow="85.71" occupancy="1.07" speed="11.17" harmonicMeanSpeed="11.17" length="5.00" nVehEntered="1"/>
    <interval begin="0.00" end="42.00" id="myLoop10" nVehContrib="3" flow="257.14" occupancy="2.62" speed="13.87" harmonicMeanSpeed="13.63" length="5.00" nVehEntered="3"/>
    <interval begin="0.00" end="42.00" id="myLoop11" nVehContrib="0" flow="0.00" occupancy="0.00" speed="-1.00" harmonicMeanSpeed="-1.00" length="-1.00" nVehEntered="0"/>
    <interval begin="0.00" end="42.00" id="myLoop12" nVehContrib="0" flow="0.00" occupancy="0.00" speed="-1.00" harmonicMeanSpeed="-1.00" length="-1.00" nVehEntered="0"/>
    <interval begin="0.00" end="42.00" id="myLoop13" nVehContrib="3" flow="257.14" occupancy="3.55" speed="10.15" harmonicMeanSpeed="10.07" length="5.00" nVehEntered="3"/>
    <interval begin="0.00" end="42.00" id="myLoop14" nVehContrib="2" flow="171.43" occupancy="1.88" speed="12.82" harmonicMeanSpeed="12.66" length="5.00" nVehEntered="2"/>
    <interval begin="0.00" end="42.00" id="myLoop15" nVehContrib="0" flow="0.00" occupancy="0.00" speed="-1.00" harmonicMeanSpeed="-1.00" length="-1.00" nVehEntered="0"/>
    <interval begin="42.00" end="84.00" id="myLoop0" nVehContrib="3" flow="257.14" occupancy="88.92" speed="3.90" harmonicMeanSpeed="0.24" length="5.00" nVehEntered="2"/>
    <interval begin="42.00" end="84.00" id="myLoop1" nVehContrib="1" flow="85.71" occupancy="41.16" speed="0.29" harmonicMeanSpeed="0.29" length="5.00" nVehEntered="1"/>
    <interval begin="42.00" end="84.00" id="myLoop2" nVehContrib="6" flow="514.29" occupancy="29.68" speed="9.89" harmonicMeanSpeed="9.38" length="5.00" nVehEntered="6"/>
    <interval begin="42.00" end="84.00" id="myLoop3" nVehContrib="0" flow="0.00" occupancy="100.00" speed="-1.00" harmonicMeanSpeed="-1.00" length="-1.00" nVehEntered="0"/>
    <interval begin="42.00" end="84.00" id="myLoop4" nVehContrib="4" flow="342.86" occupancy="84.93" speed="4.21" harmonicMeanSpeed="0.33" length="5.00" nVehEntered="3"/>
    <interval begin="42.00" end="84.00" id="myLoop5" nVehContrib="2" flow="171.43" occupancy="63.74" speed="2.24" harmonicMeanSpeed="0.17" length="5.00" nVehEntered="1"/>
    <interval begin="42.00" end="84.00" id="myLoop6" nVehContrib="4" flow="342.86" occupancy="28.66" speed="8.38" harmonicMeanSpeed="8.01" length="5.00" nVehEntered="5"/>
    <interval begin="42.00" end="84.00" id="myLoop7" nVehContrib="0" flow="0.00" occupancy="48.60" speed="-1.00" harmonicMeanSpeed="-1.00" length="-1.00" nVehEntered="1"/>
    <interval begin="42.00" end="84.00" id="myLoop8" nVehContrib="4" flow="342.86" occupancy="5.58" speed="9.00" harmonicMeanSpeed="8.53" length="5.00" nVehEntered="4"/>
    <interval begin="42.00" end="84.00" id="myLoop9" nVehContrib="0" flow="0.00" occupancy="0.00" speed="-1.00" harmonicMeanSpeed="-1.00" length="-1.00" nVehEntered="0"/>
    <interval begin="42.00" end="84.00" id="myLoop10" nVehContrib="5" flow="428.57" occupancy="5.78" speed="11.40" harmonicMeanSpeed="10.29" length="5.00" nVehEntered="5"/>
    <interval begin="42.00" end="84.00" id="myLoop11" nVehContrib="2" flow="171.43" occupancy="2.66" speed="8.95" harmonicMeanSpeed="8.95" length="5.00" nVehEntered="2"/>
    <interval begin="42.00" end="84.00" id="myLoop12" nVehContrib="1" flow="85.71" occupancy="1.48" speed="8.05" harmonicMeanSpeed="8.05" length="5.00" nVehEntered="1"/>
    <interval begin="42.00" end="84.00" id="myLoop13" nVehContrib="0" flow="0.00" occupancy="0.00" speed="-1.00" harmonicMeanSpeed="-1.00" length="-1.00" nVehEntered="0"/>
    <interval begin="42.00" end="84.00" id="myLoop14" nVehContrib="6" flow="514.29" occupancy="5.35" speed="13.87" harmonicMeanSpeed="13.34" length="5.00" nVehEntered="6"/>
    <interval begin="42.00" end="84.00" id="myLoop15" nVehContrib="1" flow="85.71" occupancy="1.16" speed="10.23" harmonicMeanSpeed="10.23" length="5.00" nVehEntered="1"/>
    <interval begin="84.00" end="126.00" id="myLoop0" nVehContrib="7" flow="600.00" occupancy="11.60" speed="7.48" harmonicMeanSpeed="7.18" length="5.00" nVehEntered="7"/>
    <interval begin="84.00" end="126.00" id="myLoop1" nVehContrib="0" flow="0.00" occupancy="79.13" speed="-1.00" harmonicMeanSpeed="-1.00" length="-1.00" nVehEntered="1"/>
    <interval begin="84.00" end="126.00" id="myLoop2" nVehContrib="0" flow="0.00" occupancy="6.92" speed="-1.00" harmonicMeanSpeed="-1.00" length="-1.00" nVehEntered="1"/>
    <interval begin="84.00" end="126.00" id="myLoop3" nVehContrib="3" flow="257.14" occupancy="91.40" speed="2.82" harmonicMeanSpeed="0.15" length="5.00" nVehEntered="2"/>
    <interval begin="84.00" end="126.00" id="myLoop4" nVehContrib="10" flow="857.14" occupancy="34.88" speed="8.21" harmonicMeanSpeed="7.56" length="5.00" nVehEntered="11"/>
    <interval begin="84.00" end="126.00" id="myLoop5" nVehContrib="0" flow="0.00" occupancy="78.04" speed="-1.00" harmonicMeanSpeed="-1.00" length="-1.00" nVehEntered="1"/>
    <interval begin="84.00" end="126.00" id="myLoop6" nVehContrib="0" flow="0.00" occupancy="100.00" speed="-1.00" harmonicMeanSpeed="-1.00" length="-1.00" nVehEntered="0"/>
    <interval begin="84.00" end="126.00" id="myLoop7" nVehContrib="3" flow="257.14" occupancy="88.75" speed="4.10" harmonicMeanSpeed="0.26" length="5.00" nVehEntered="2"/>
    <interval begin="84.00" end="126.00" id="myLoop8" nVehContrib="6" flow="514.29" occupancy="5.09" speed="14.13" harmonicMeanSpeed="14.05" length="5.00" nVehEntered="6"/>
    <interval begin="84.00" end="126.00" id="myLoop9" nVehContrib="1" flow="85.71" occupancy="1.26" speed="9.42" harmonicMeanSpeed="9.42" length="5.00" nVehEntered="1"/>
    <interval begin="84.00" end="126.00" id="myLoop10" nVehContrib="4" flow="342.86" occupancy="5.99" speed="8.01" harmonicMeanSpeed="7.95" length="5.00" nVehEntered="4"/>
    <interval begin="84.00" end="126.00" id="myLoop11" nVehContrib="0" flow="0.00" occupancy="0.00" speed="-1.00" harmonicMeanSpeed="-1.00" length="-1.00" nVehEntered="0"/>
    <interval begin="84.00" end="126.00" id="myLoop12" nVehContrib="4" flow="342.86" occupancy="3.58" speed="13.40" harmonicMeanSpeed="13.31" length="5.00" nVehEntered="4"/>
    <interval begin="84.00" end="126.00" id="myLoop13" nVehContrib="1" flow="85.71" occupancy="2.25" speed="10.37" harmonicMeanSpeed="10.37" length="5.00" nVehEntered="2"/>
    <interval begin="84.00" end="126.00" id="myLoop14" nVehContrib="5" flow="428.57" occupancy="8.52" speed="7.07" harmonicMeanSpeed="6.99" length="5.00" nVehEntered="5"/>
    <interval begin="84.00" end="126.00" id="myLoop15" nVehContrib="0" flow="0.00" occupancy="0.00" speed="-1.00" harmonicMeanSpeed="-1.00" length="-1.00" nVehEntered="0"/>
    <interval begin="126.00" end="168.00" id="myLoop0" nVehContrib="0" flow="0.00" occupancy="0.00" speed="-1.00" harmonicMeanSpeed="-1.00" length="-1.00" nVehEntered="0"/>
    <interval begin="126.00" end="168.00" id="myLoop1" nVehContrib="0" flow="0.00" occupancy="100.00" speed="-1.00" harmonicMeanSpeed="-1.00" length="-1.00" nVehEntered="0"/>
    <interval begin="126.00" end="168.00" id="myLoop2" nVehContrib="12" flow="1028.57" occupancy="31.28" speed="7.66" harmonicMeanSpeed="3.74" length="5.00" nVehEntered="11"/>
    <interval begin="126.00" end="168.00" id="myLoop3" nVehContrib="2" flow="171.43" occupancy="60.32" speed="6.97" harmonicMeanSpeed="6.96" length="5.00" nVehEntered="3"/>
    <interval begin="126.00" end="168.00" id="myLoop4" nVehContrib="0" flow="0.00" occupancy="100.00" speed="-1.00" harmonicMeanSpeed="-1.00" length="-1.00" nVehEntered="0"/>
    <interval begin="126.00" end="168.00" id="myLoop5" nVehContrib="0" flow="0.00" occupancy="100.00" speed="-1.00" harmonicMeanSpeed="-1.00" length="-1.00" nVehEntered="0"/>
    <interval begin="126.00" end="168.00" id="myLoop6" nVehContrib="11" flow="942.86" occupancy="43.10" speed="8.26" harmonicMeanSpeed="0.79" length="5.00" nVehEntered="10"/>
    <interval begin="126.00" end="168.00" id="myLoop7" nVehContrib="0" flow="0.00" occupancy="37.43" speed="-1.00" harmonicMeanSpeed="-1.00" length="-1.00" nVehEntered="1"/>
    <interval begin="126.00" end="168.00" id="myLoop8" nVehContrib="3" flow="257.14" occupancy="4.82" speed="7.47" harmonicMeanSpeed="7.41" length="5.00" nVehEntered="3"/>
    <interval begin="126.00" end="168.00" id="myLoop9" nVehContrib="4" flow="342.86" occupancy="5.45" speed="8.81" harmonicMeanSpeed="8.74" length="5.00" nVehEntered="4"/>
    <interval begin="126.00" end="168.00" id="myLoop10" nVehContrib="8" flow="685.71" occupancy="6.84" speed="14.14" harmonicMeanSpeed="13.92" length="5.00" nVehEntered="8"/>
    <interval begin="126.00" end="168.00" id="myLoop11" nVehContrib="0" flow="0.00" occupancy="0.00" speed="-1.00" harmonicMeanSpeed="-1.00" length="-1.00" nVehEntered="0"/>
    <interval begin="126.00" end="168.00" id="myLoop12" nVehContrib="4" flow="342.86" occupancy="6.87" speed="7.07" harmonicMeanSpeed="6.93" length="5.00" nVehEntered="4"/>
    <interval begin="126.00" end="168.00" id="myLoop13" nVehContrib="2" flow="171.43" occupancy="1.57" speed="8.95" harmonicMeanSpeed="8.94" length="5.00" nVehEntered="1"/>
    <interval begin="126.00" end="168.00" id="myLoop14" nVehContrib="7" flow="600.00" occupancy="5.91" speed="14.31" harmonicMeanSpeed="14.11" length="5.00" nVehEntered="7"/>
    <interval begin="126.00" end="168.00" id="myLoop15" nVehContrib="0" flow="0.00" occupancy="0.00" speed="-1.00" harmonicMeanSpeed="-1.00" length="-1.00" nVehEntered="0"/>
    <interval begin="168.00" end="210.00" id="myLoop0" nVehContrib="0" flow="0.00" occupancy="40.49" speed="-1.00" harmonicMeanSpeed="-1.00" length="-1.00" nVehEntered="1"/>
    <interval begin="168.00" end="210.00" id="myLoop1" nVehContrib="8" flow="685.71" occupancy="39.75" speed="6.47" harmonicMeanSpeed="0.44" length="5.00" nVehEntered="7"/>
    <interval begin="168.00" end="210.00" id="myLoop2" nVehContrib="0" flow="0.00" occupancy="84.21" speed="-1.00" harmonicMeanSpeed="-1.00" length="-1.00" nVehEntered="1"/>
    <interval begin="168.00" end="210.00" id="myLoop3" nVehContrib="0" flow="0.00" occupancy="100.00" speed="-1.00" harmonicMeanSpeed="-1.00" length="-1.00" nVehEntered="0"/>
    <interval begin="168.00" end="210.00" id="myLoop4" nVehContrib="0" flow="0.00" occupancy="100.00" speed="-1.00" harmonicMeanSpeed="-1.00" length="-1.00" nVehEntered="0"/>
    <interval begin="168.00" end="210.00" id="myLoop5" nVehContrib="8" flow="685.71" occupancy="39.82" speed="6.26" harmonicMeanSpeed="0.44" length="5.00" nVehEntered="7"/>
    <interval begin="168.00" end="210.00" id="myLoop6" nVehContrib="4" flow="342.86" occupancy="72.88" speed="9.87" harmonicMeanSpeed="9.07" length="5.00" nVehEntered="5"/>
    <interval begin="168.00" end="210.00" id="myLoop7" nVehContrib="0" flow="0.00" occupancy="100.00" speed="-1.00" harmonicMeanSpeed="-1.00" length="-1.00" nVehEntered="0"/>
    <interval begin="168.00" end="210.00" id="myLoop8" nVehContrib="1" flow="85.71" occupancy="1.50" speed="7.95" harmonicMeanSpeed="7.95" length="5.00" nVehEntered="1"/>
    <interval begin="168.00" end="210.00" id="myLoop9" nVehContrib="0" flow="0.00" occupancy="0.00" speed="-1.00" harmonicMeanSpeed="-1.00" length="-1.00" nVehEntered="0"/>
    <interval begin="168.00" end="210.00" id="myLoop10" nVehContrib="3" flow="257.14" occupancy="2.40" speed="14.91" harmonicMeanSpeed="14.90" length="5.00" nVehEntered="3"/>
    <interval begin="168.00" end="210.00" id="myLoop11" nVehContrib="8" flow="685.71" occupancy="10.29" speed="9.37" harmonicMeanSpeed="9.25" length="5.00" nVehEntered="8"/>
    <interval begin="168.00" end="210.00" id="myLoop12" nVehContrib="1" flow="85.71" occupancy="1.38" speed="8.66" harmonicMeanSpeed="8.66" length="5.00" nVehEntered="1"/>
    <interval begin="168.00" end="210.00" id="myLoop13" nVehContrib="0" flow="0.00" occupancy="0.00" speed="-1.00" harmonicMeanSpeed="-1.00" length="-1.00" nVehEntered="0"/>
    <interval begin="168.00" end="210.00" id="myLoop14" nVehContrib="0" flow="0.00" occupancy="0.00" speed="-1.00" harmonicMeanSpeed="-1.00" length="-1.00" nVehEntered="0"/>
    <interval begin="168.00" end="210.00" id="myLoop15" nVehContrib="8" flow="685.71" occupancy="10.39" speed="9.26" harmonicMeanSpeed="9.17" length="5.00" nVehEntered="8"/>
    <interval begin="210.00" end="252.00" id="myLoop0" nVehContrib="14" flow="1200.00" occupancy="25.06" speed="6.61" harmonicMeanSpeed="2.54" length="5.00" nVehEntered="13"/>
    <interval begin="210.00" end="252.00" id="myLoop1" nVehContrib="0" flow="0.00" occupancy="70.64" speed="-1.00" harmonicMeanSpeed="-1.00" length="-1.00" nVehEntered="1"/>
    <interval begin="210.00" end="252.00" id="myLoop2" nVehContrib="0" flow="0.00" occupancy="100.00" speed="-1.00" harmonicMeanSpeed="-1.00" length="-1.00" nVehEntered="0"/>
    <interval begin="210.00" end="252.00" id="myLoop3" nVehContrib="0" flow="0.00" occupancy="100.00" speed="-1.00" harmonicMeanSpeed="-1.00" length="-1.00" nVehEntered="0"/>
    <interval begin="210.00" end="252.00" id="myLoop4" nVehContrib="13" flow="1114.29" occupancy="26.54" speed="6.33" harmonicMeanSpeed="0.63" length="5.00" nVehEntered="12"/>
    <interval begin="210.00" end="252.00" id="myLoop5" nVehContrib="0" flow="0.00" occupancy="68.42" speed="-1.00" harmonicMeanSpeed="-1.00" length="-1.00" nVehEntered="1"/>
    <interval begin="210.00" end="252.00" id="myLoop6" nVehContrib="0" flow="0.00" occupancy="100.00" speed="-1.00" harmonicMeanSpeed="-1.00" length="-1.00" nVehEntered="0"/>
    <interval begin="210.00" end="252.00" id="myLoop7" nVehContrib="0" flow="0.00" occupancy="100.00" speed="-1.00" harmonicMeanSpeed="-1.00" length="-1.00" nVehEntered="0"/>
    <interval begin="210.00" end="252.00" id="myLoop8" nVehContrib="4" flow="342.86" occupancy="3.89" speed="12.38" harmonicMeanSpeed="12.24" length="5.00" nVehEntered="4"/>
    <interval begin="210.00" end="252.00" id="myLoop9" nVehContrib="0" flow="0.00" occupancy="0.00" speed="-1.00" harmonicMeanSpeed="-1.00" length="-1.00" nVehEntered="0"/>
    <interval begin="210.00" end="252.00" id="myLoop10" nVehContrib="7" flow="600.00" occupancy="10.80" speed="7.77" harmonicMeanSpeed="7.72" length="5.00" nVehEntered="7"/>
    <interval begin="210.00" end="252.00" id="myLoop11" nVehContrib="0" flow="0.00" occupancy="0.00" speed="-1.00" harmonicMeanSpeed="-1.00" length="-1.00" nVehEntered="0"/>
    <interval begin="210.00" end="252.00" id="myLoop12" nVehContrib="6" flow="514.29" occupancy="5.46" speed="13.24" harmonicMeanSpeed="13.07" length="5.00" nVehEntered="6"/>
    <interval begin="210.00" end="252.00" id="myLoop13" nVehContrib="0" flow="0.00" occupancy="0.00" speed="-1.00" harmonicMeanSpeed="-1.00" length="-1.00" nVehEntered="0"/>
    <interval begin="210.00" end="252.00" id="myLoop14" nVehContrib="8" flow="685.71" occupancy="12.79" speed="7.48" harmonicMeanSpeed="7.45" length="5.00" nVehEntered="8"/>
    <interval begin="210.00" end="252.00" id="myLoop15" nVehContrib="0" flow="0.00" occupancy="0.00" speed="-1.00" harmonicMeanSpeed="-1.00" length="-1.00" nVehEntered="0"/>
    <interval begin="252.00" end="294.00" id="myLoop0" nVehContrib="0" flow="0.00" occupancy="96.48" speed="-1.00" harmonicMeanSpeed="-1.00" length="-1.00" nVehEntered="1"/>
    <interval begin="252.00" end="294.00" id="myLoop1" nVehContrib="0" flow="0.00" occupancy="100.00" speed="-1.00" harmonicMeanSpeed="-1.00" length="-1.00" nVehEntered="0"/>
    <interval begin="252.00" end="294.00" id="myLoop2" nVehContrib="10" flow="857.14" occupancy="16.09" speed="8.23" harmonicMeanSpeed="7.40" length="5.00" nVehEntered="12"/>
    <interval begin="252.00" end="294.00" id="myLoop3" nVehContrib="9" flow="771.43" occupancy="23.03" speed="4.62" harmonicMeanSpeed="0.38" length="5.00" nVehEntered="8"/>
    <interval begin="252.00" end="294.00" id="myLoop4" nVehContrib="0" flow="0.00" occupancy="96.18" speed="-1.00" harmonicMeanSpeed="-1.00" length="-1.00" nVehEntered="1"/>
    <interval begin="252.00" end="294.00" id="myLoop5" nVehContrib="0" flow="0.00" occupancy="100.00" speed="-1.00" harmonicMeanSpeed="-1.00" length="-1.00" nVehEntered="0"/>
    <interval begin="252.00" end="294.00" id="myLoop6" nVehContrib="5" flow="428.57" occupancy="79.46" speed="4.52" harmonicMeanSpeed="0.24" length="5.00" nVehEntered="4"/>
    <interval begin="252.00" end="294.00" id="myLoop7" nVehContrib="2" flow="171.43" occupancy="7.45" speed="2.24" harmonicMeanSpeed="0.10" length="5.00" nVehEntered="1"/>
    <interval begin="252.00" end="294.00" id="myLoop8" nVehContrib="2" flow="171.43" occupancy="3.31" speed="7.22" harmonicMeanSpeed="7.20" length="5.00" nVehEntered="2"/>
    <interval begin="252.00" end="294.00" id="myLoop9" nVehContrib="9" flow="771.43" occupancy="11.23" speed="9.66" harmonicMeanSpeed="9.54" length="5.00" nVehEntered="9"/>
    <interval begin="252.00" end="294.00" id="myLoop10" nVehContrib="3" flow="257.14" occupancy="3.95" speed="9.95" harmonicMeanSpeed="9.05" length="5.00" nVehEntered="3"/>
    <interval begin="252.00" end="294.00" id="myLoop11" nVehContrib="0" flow="0.00" occupancy="0.00" speed="-1.00" harmonicMeanSpeed="-1.00" length="-1.00" nVehEntered="0"/>
    <interval begin="252.00" end="294.00" id="myLoop12" nVehContrib="2" flow="171.43" occupancy="2.93" speed="8.12" harmonicMeanSpeed="8.12" length="5.00" nVehEntered="2"/>
    <interval begin="252.00" end="294.00" id="myLoop13" nVehContrib="2" flow="171.43" occupancy="2.30" speed="10.41" harmonicMeanSpeed="10.36" length="5.00" nVehEntered="2"/>
    <interval begin="252.00" end="294.00" id="myLoop14" nVehContrib="8" flow="685.71" occupancy="7.41" speed="13.25" harmonicMeanSpeed="12.85" length="5.00" nVehEntered="8"/>
    <interval begin="252.00" end="294.00" id="myLoop15" nVehContrib="0" flow="0.00" occupancy="0.00" speed="-1.00" harmonicMeanSpeed="-1.00" length="-1.00" nVehEntered="0"/>
    <interval begin="294.00" end="336.00" id="myLoop0" nVehContrib="0" flow="0.00" occupancy="100.00" speed="-1.00" harmonicMeanSpeed="-1.00" length="-1.00" nVehEntered="0"/>
    <interval begin="294.00" end="336.00" id="myLoop1" nVehContrib="4" flow="342.86" occupancy="76.61" speed="5.26" harmonicMeanSpeed="0.19" length="5.00" nVehEntered="3"/>
    <interval begin="294.00" end="336.00" id="myLoop2" nVehContrib="4" flow="342.86" occupancy="44.55" speed="8.84" harmonicMeanSpeed="8.26" length="5.00" nVehEntered="5"/>
    <interval begin="294.00" end="336.00" id="myLoop3" nVehContrib="0" flow="0.00" occupancy="70.32" speed="-1.00" harmonicMeanSpeed="-1.00" length="-1.00" nVehEntered="1"/>
    <interval begin="294.00" end="336.00" id="myLoop4" nVehContrib="0" flow="0.00" occupancy="20.38" speed="-1.00" harmonicMeanSpeed="-1.00" length="-1.00" nVehEntered="1"/>
    <interval begin="294.00" end="336.00" id="myLoop5" nVehContrib="4" flow="342.86" occupancy="78.61" speed="3.64" harmonicMeanSpeed="0.19" length="5.00" nVehEntered="3"/>
    <interval begin="294.00" end="336.00" id="myLoop6" nVehContrib="9" flow="771.43" occupancy="41.10" speed="9.32" harmonicMeanSpeed="8.52" length="5.00" nVehEntered="10"/>
    <interval begin="294.00" end="336.00" id="myLoop7" nVehContrib="0" flow="0.00" occupancy="65.88" speed="-1.00" harmonicMeanSpeed="-1.00" length="-1.00" nVehEntered="1"/>
    <interval begin="294.00" end="336.00" id="myLoop8" nVehContrib="3" flow="257.14" occupancy="4.93" speed="7.25" harmonicMeanSpeed="7.24" length="5.00" nVehEntered="3"/>
    <interval begin="294.00" end="336.00" id="myLoop9" nVehContrib="0" flow="0.00" occupancy="0.00" speed="-1.00" harmonicMeanSpeed="-1.00" length="-1.00" nVehEntered="0"/>
    <interval begin="294.00" end="336.00" id="myLoop10" nVehContrib="7" flow="600.00" occupancy="5.84" speed="14.34" harmonicMeanSpeed="14.26" length="5.00" nVehEntered="7"/>
    <interval begin="294.00" end="336.00" id="myLoop11" nVehContrib="3" flow="257.14" occupancy="3.90" speed="9.24" harmonicMeanSpeed="9.17" length="5.00" nVehEntered="3"/>
    <interval begin="294.00" end="336.00" id="myLoop12" nVehContrib="3" flow="257.14" occupancy="4.79" speed="7.48" harmonicMeanSpeed="7.46" length="5.00" nVehEntered="3"/>
    <interval begin="294.00" end="336.00" id="myLoop13" nVehContrib="0" flow="0.00" occupancy="0.00" speed="-1.00" harmonicMeanSpeed="-1.00" length="-1.00" nVehEntered="0"/>
    <interval begin="294.00" end="336.00" id="myLoop14" nVehContrib="2" flow="171.43" occupancy="1.68" speed="14.17" harmonicMeanSpeed="14.16" length="5.00" nVehEntered="2"/>
    <interval begin="294.00" end="336.00" id="myLoop15" nVehContrib="4" flow="342.86" occupancy="4.72" speed="10.29" harmonicMeanSpeed="10.08" length="5.00" nVehEntered="4"/>
    <interval begin="336.00" end="378.00" id="myLoop0" nVehContrib="5" flow="428.57" occupancy="79.97" speed="5.88" harmonicMeanSpeed="0.22" length="5.00" nVehEntered="4"/>
    <interval begin="336.00" end="378.00" id="myLoop1" nVehContrib="0" flow="0.00" occupancy="0.00" speed="-1.00" harmonicMeanSpeed="-1.00" length="-1.00" nVehEntered="0"/>
    <interval begin="336.00" end="378.00" id="myLoop2" nVehContrib="0" flow="0.00" occupancy="100.00" speed="-1.00" harmonicMeanSpeed="-1.00" length="-1.00" nVehEntered="0"/>
    <interval begin="336.00" end="378.00" id="myLoop3" nVehContrib="0" flow="0.00" occupancy="100.00" speed="-1.00" harmonicMeanSpeed="-1.00" length="-1.00" nVehEntered="0"/>
    <interval begin="336.00" end="378.00" id="myLoop4" nVehContrib="13" flow="1114.29" occupancy="24.58" speed="7.92" harmonicMeanSpeed="3.44" length="5.00" nVehEntered="12"/>
    <interval begin="336.00" end="378.00" id="myLoop5" nVehContrib="7" flow="600.00" occupancy="27.90" speed="7.92" harmonicMeanSpeed="7.49" length="5.00" nVehEntered="8"/>
    <interval begin="336.00" end="378.00" id="myLoop6" nVehContrib="0" flow="0.00" occupancy="100.00" speed="-1.00" harmonicMeanSpeed="-1.00" length="-1.00" nVehEntered="0"/>
    <interval begin="336.00" end="378.00" id="myLoop7" nVehContrib="0" flow="0.00" occupancy="100.00" speed="-1.00" harmonicMeanSpeed="-1.00" length="-1.00" nVehEntered="0"/>
    <interval begin="336.00" end="378.00" id="myLoop8" nVehContrib="6" flow="514.29" occupancy="4.89" speed="14.69" harmonicMeanSpeed="14.62" length="5.00" nVehEntered="6"/>
    <interval begin="336.00" end="378.00" id="myLoop9" nVehContrib="0" flow="0.00" occupancy="0.00" speed="-1.00" harmonicMeanSpeed="-1.00" length="-1.00" nVehEntered="0"/>
    <interval begin="336.00" end="378.00" id="myLoop10" nVehContrib="0" flow="0.00" occupancy="0.00" speed="-1.00" harmonicMeanSpeed="-1.00" length="-1.00" nVehEntered="0"/>
    <interval begin="336.00" end="378.00" id="myLoop11" nVehContrib="8" flow="685.71" occupancy="9.54" speed="10.02" harmonicMeanSpeed="9.99" length="5.00" nVehEntered="8"/>
    <interval begin="336.00" end="378.00" id="myLoop12" nVehContrib="4" flow="342.86" occupancy="4.11" speed="11.64" harmonicMeanSpeed="11.58" length="5.00" nVehEntered="4"/>
    <interval begin="336.00" end="378.00" id="myLoop13" nVehContrib="0" flow="0.00" occupancy="0.00" speed="-1.00" harmonicMeanSpeed="-1.00" length="-1.00" nVehEntered="0"/>
    <interval begin="336.00" end="378.00" id="myLoop14" nVehContrib="6" flow="514.29" occupancy="9.82" speed="7.46" harmonicMeanSpeed="7.28" length="5.00" nVehEntered="6"/>
    <interval begin="336.00" end="378.00" id="myLoop15" nVehContrib="0" flow="0.00" occupancy="0.00" speed="-1.00" harmonicMeanSpeed="-1.00" length="-1.00" nVehEntered="0"/>
    <interval begin="378.00" end="420.00" id="myLoop0" nVehContrib="9" flow="771.43" occupancy="33.43" speed="8.40" harmonicMeanSpeed="7.93" length="5.00" nVehEntered="10"/>
    <interval begin="378.00" end="420.00" id="myLoop1" nVehContrib="0" flow="0.00" occupancy="98.17" speed="-1.00" harmonicMeanSpeed="-1.00" length="-1.00" nVehEntered="1"/>
    <interval begin="378.00" end="420.00" id="myLoop2" nVehContrib="0" flow="0.00" occupancy="15.61" speed="-1.00" harmonicMeanSpeed="-1.00" length="-1.00" nVehEntered="1"/>
    <interval begin="378.00" end="420.00" id="myLoop3" nVehContrib="3" flow="257.14" occupancy="79.94" speed="2.80" harmonicMeanSpeed="0.14" length="5.00" nVehEntered="3"/>
    <interval begin="378.00" end="420.00" id="myLoop4" nVehContrib="1" flow="85.71" occupancy="88.71" speed="7.01" harmonicMeanSpeed="7.01" length="5.00" nVehEntered="2"/>
    <interval begin="378.00" end="420.00" id="myLoop5" nVehContrib="0" flow="0.00" occupancy="100.00" speed="-1.00" harmonicMeanSpeed="-1.00" length="-1.00" nVehEntered="0"/>
    <interval begin="378.00" end="420.00" id="myLoop6" nVehContrib="0" flow="0.00" occupancy="100.00" speed="-1.00" harmonicMeanSpeed="-1.00" length="-1.00" nVehEntered="0"/>
    <interval begin="378.00" end="420.00" id="myLoop7" nVehContrib="5" flow="428.57" occupancy="81.82" speed="5.10" harmonicMeanSpeed="0.24" length="5.00" nVehEntered="5"/>
    <interval begin="378.00" end="420.00" id="myLoop8" nVehContrib="1" flow="85.71" occupancy="0.88" speed="13.57" harmonicMeanSpeed="13.57" length="5.00" nVehEntered="1"/>
    <interval begin="378.00" end="420.00" id="myLoop9" nVehContrib="3" flow="257.14" occupancy="3.93" speed="9.10" harmonicMeanSpeed="9.10" length="5.00" nVehEntered="3"/>
    <interval begin="378.00" end="420.00" id="myLoop10" nVehContrib="6" flow="514.29" occupancy="9.18" speed="7.83" harmonicMeanSpeed="7.78" length="5.00" nVehEntered="6"/>
    <interval begin="378.00" end="420.00" id="myLoop11" nVehContrib="0" flow="0.00" occupancy="0.00" speed="-1.00" harmonicMeanSpeed="-1.00" length="-1.00" nVehEntered="0"/>
    <interval begin="378.00" end="420.00" id="myLoop12" nVehContrib="4" flow="342.86" occupancy="3.21" speed="14.93" harmonicMeanSpeed="14.84" length="5.00" nVehEntered="4"/>
    <interval begin="378.00" end="420.00" id="myLoop13" nVehContrib="4" flow="342.86" occupancy="5.27" speed="9.17" harmonicMeanSpeed="9.03" length="5.00" nVehEntered="4"/>
    <interval begin="378.00" end="420.00" id="myLoop14" nVehContrib="1" flow="85.71" occupancy="1.92" speed="6.19" harmonicMeanSpeed="6.19" length="5.00" nVehEntered="1"/>
    <interval begin="378.00" end="420.00" id="myLoop15" nVehContrib="0" flow="0.00" occupancy="0.00" speed="-1.00" harmonicMeanSpeed="-1.00" length="-1.00" nVehEntered="0"/>
    <interval begin="420.00" end="462.00" id="myLoop0" nVehContrib="0" flow="0.00" occupancy="100.00" speed="-1.00" harmonicMeanSpeed="-1.00" length="-1.00" nVehEntered="0"/>
    <interval begin="420.00" end="462.00" id="myLoop1" nVehContrib="0" flow="0.00" occupancy="100.00" speed="-1.00" harmonicMeanSpeed="-1.00" length="-1.00" nVehEntered="0"/>
    <interval begin="420.00" end="462.00" id="myLoop2" nVehContrib="7" flow="600.00" occupancy="59.52" speed="5.10" harmonicMeanSpeed="1.11" length="5.00" nVehEntered="6"/>
    <interval begin="420.00" end="462.00" id="myLoop3" nVehContrib="4" flow="342.86" occupancy="24.26" speed="6.15" harmonicMeanSpeed="5.96" length="5.00" nVehEntered="4"/>
    <interval begin="420.00" end="462.00" id="myLoop4" nVehContrib="0" flow="0.00" occupancy="100.00" speed="-1.00" harmonicMeanSpeed="-1.00" length="-1.00" nVehEntered="0"/>
    <interval begin="420.00" end="462.00" id="myLoop5" nVehContrib="0" flow="0.00" occupancy="100.00" speed="-1.00" harmonicMeanSpeed="-1.00" length="-1.00" nVehEntered="0"/>
    <interval begin="420.00" end="462.00" id="myLoop6" nVehContrib="8" flow="685.71" occupancy="52.29" speed="5.17" harmonicMeanSpeed="0.34" length="5.00" nVehEntered="7"/>
    <interval begin="420.00" end="462.00" id="myLoop7" nVehContrib="4" flow="342.86" occupancy="39.69" speed="8.74" harmonicMeanSpeed="8.68" length="5.00" nVehEntered="4"/>