<?xml version="1.0" encoding="UTF-8"?>

<!-- generated on Tue Apr 21 16:09:40 2020 by Eclipse SUMO GUI Version 1.5.0
<configuration xmlns:xsi="http://www.w3.org/2001/XMLSchema-instance" xsi:noNamespaceSchemaLocation="http://sumo.dlr.de/xsd/sumoConfiguration.xsd">

    <input>
        <net-file value="my_net.net.xml"/>
        <route-files value="my_route.rou.xml"/>
        <additional-files value="demo.add.xml"/>
    </input>

    <output>
        <tripinfo-output value="tripinfo.xml"/>
    </output>

    <time>
        <begin value="0"/>
        <end value="2000"/>
    </time>

    <traci_server>
        <remote-port value="56677"/>
    </traci_server>

</configuration>
-->

<tripinfos xmlns:xsi="http://www.w3.org/2001/XMLSchema-instance" xsi:noNamespaceSchemaLocation="http://sumo.dlr.de/xsd/tripinfo_file.xsd">
    <tripinfo id="0" depart="0.00" departLane="n3ton4_0" departPos="5.10" departSpeed="0.00" departDelay="0.00" arrival="12.00" arrivalLane="n4ton0_0" arrivalPos="39.60" arrivalSpeed="15.17" duration="12.00" routeLength="83.13" waitingTime="0.00" waitingCount="0" stopTime="0.00" timeLoss="5.35" rerouteNo="0" devices="tripinfo_0" vType="DEFAULT_VEHTYPE" speedFactor="1.06" vaporized=""/>
    <tripinfo id="6" depart="6.00" departLane="n3ton4_0" departPos="5.10" departSpeed="0.00" departDelay="0.00" arrival="18.00" arrivalLane="n4ton0_0" arrivalPos="39.60" arrivalSpeed="15.51" duration="12.00" routeLength="83.13" waitingTime="0.00" waitingCount="0" stopTime="0.00" timeLoss="6.01" rerouteNo="0" devices="tripinfo_6" vType="DEFAULT_VEHTYPE" speedFactor="1.08" vaporized=""/>
    <tripinfo id="5" depart="5.00" departLane="n1ton4_0" departPos="5.10" departSpeed="0.00" departDelay="0.00" arrival="20.00" arrivalLane="n4ton2_1" arrivalPos="39.60" arrivalSpeed="13.63" duration="15.00" routeLength="83.13" waitingTime="0.00" waitingCount="0" stopTime="0.00" timeLoss="8.57" rerouteNo="0" devices="tripinfo_5" vType="DEFAULT_VEHTYPE" speedFactor="1.01" vaporized=""/>
    <tripinfo id="8" depart="8.00" departLane="n1ton4_0" departPos="5.10" departSpeed="0.00" departDelay="0.00" arrival="20.00" arrivalLane="n4ton3_0" arrivalPos="39.60" arrivalSpeed="15.67" duration="12.00" routeLength="94.90" waitingTime="0.00" waitingCount="0" stopTime="0.00" timeLoss="5.35" rerouteNo="0" devices="tripinfo_8" vType="DEFAULT_VEHTYPE" speedFactor="1.03" vaporized=""/>
    <tripinfo id="19" depart="19.00" departLane="n0ton4_0" departPos="5.10" departSpeed="0.00" departDelay="0.00" arrival="55.00" arrivalLane="n4ton3_1" arrivalPos="39.60" arrivalSpeed="14.84" duration="36.00" routeLength="93.45" waitingTime="21.00" waitingCount="1" stopTime="0.00" timeLoss="28.26" rerouteNo="0" devices="tripinfo_19" vType="DEFAULT_VEHTYPE" speedFactor="0.94" vaporized=""/>
    <tripinfo id="24" depart="24.00" departLane="n0ton4_0" departPos="5.10" departSpeed="0.00" departDelay="0.00" arrival="57.00" arrivalLane="n4ton3_1" arrivalPos="39.60" arrivalSpeed="13.85" duration="33.00" routeLength="93.45" waitingTime="18.00" waitingCount="1" stopTime="0.00" timeLoss="26.14" rerouteNo="0" devices="tripinfo_24" vType="DEFAULT_VEHTYPE" speedFactor="1.05" vaporized=""/>
    <tripinfo id="39" depart="40.00" departLane="n0ton4_0" departPos="5.10" departSpeed="0.00" departDelay="1.00" arrival="59.00" arrivalLane="n4ton3_1" arrivalPos="39.60" arrivalSpeed="14.23" duration="19.00" routeLength="93.45" waitingTime="2.00" waitingCount="1" stopTime="0.00" timeLoss="11.34" rerouteNo="0" devices="tripinfo_39" vType="DEFAULT_VEHTYPE" speedFactor="0.89" vaporized=""/>
    <tripinfo id="49" depart="49.00" departLane="n2ton4_0" departPos="5.10" departSpeed="0.00" departDelay="0.00" arrival="61.00" arrivalLane="n4ton1_1" arrivalPos="39.60" arrivalSpeed="14.05" duration="12.00" routeLength="93.45" waitingTime="0.00" waitingCount="0" stopTime="0.00" timeLoss="4.77" rerouteNo="0" devices="tripinfo_49" vType="DEFAULT_VEHTYPE" speedFactor="1.01" vaporized=""/>
    <tripinfo id="41" depart="41.00" departLane="n0ton4_0" departPos="5.10" departSpeed="0.00" departDelay="0.00" arrival="62.00" arrivalLane="n4ton3_1" arrivalPos="39.60" arrivalSpeed="13.62" duration="21.00" routeLength="93.45" waitingTime="2.00" waitingCount="1" stopTime="0.00" timeLoss="12.88" rerouteNo="0" devices="tripinfo_41" vType="DEFAULT_VEHTYPE" speedFactor="0.87" vaporized=""/>
    <tripinfo id="47" depart="47.00" departLane="n0ton4_0" departPos="5.10" departSpeed="0.00" departDelay="0.00" arrival="63.00" arrivalLane="n4ton3_1" arrivalPos="39.60" arrivalSpeed="14.30" duration="16.00" routeLength="93.45" waitingTime="1.00" waitingCount="1" stopTime="0.00" timeLoss="10.39" rerouteNo="0" devices="tripinfo_47" vType="DEFAULT_VEHTYPE" speedFactor="1.18" vaporized=""/>
    <tripinfo id="48" depart="51.00" departLane="n0ton4_0" departPos="5.10" departSpeed="0.00" departDelay="3.00" arrival="65.00" arrivalLane="n4ton3_1" arrivalPos="39.60" arrivalSpeed="16.30" duration="14.00" routeLength="93.45" waitingTime="1.00" waitingCount="1" stopTime="0.00" timeLoss="7.95" rerouteNo="0" devices="tripinfo_48" vType="DEFAULT_VEHTYPE" speedFactor="1.15" vaporized=""/>
    <tripinfo id="14" depart="14.00" departLane="n2ton4_0" departPos="5.10" departSpeed="0.00" departDelay="0.00" arrival="73.00" arrivalLane="n4ton3_0" arrivalPos="39.60" arrivalSpeed="13.61" duration="59.00" routeLength="83.13" waitingTime="45.00" waitingCount="1" stopTime="0.00" timeLoss="53.21" rerouteNo="0" devices="tripinfo_14" vType="DEFAULT_VEHTYPE" speedFactor="1.05" vaporized=""/>
    <tripinfo id="29" depart="29.00" departLane="n2ton4_0" departPos="5.10" departSpeed="0.00" departDelay="0.00" arrival="76.00" arrivalLane="n4ton0_0" arrivalPos="39.60" arrivalSpeed="13.92" duration="47.00" routeLength="94.90" waitingTime="30.00" waitingCount="1" stopTime="0.00" timeLoss="39.71" rerouteNo="0" devices="tripinfo_29" vType="DEFAULT_VEHTYPE" speedFactor="0.88" vaporized=""/>
    <tripinfo id="50" depart="50.00" departLane="n2ton4_0" departPos="5.10" departSpeed="0.00" departDelay="0.00" arrival="78.00" arrivalLane="n4ton0_0" arrivalPos="39.60" arrivalSpeed="17.64" duration="28.00" routeLength="94.90" waitingTime="12.00" waitingCount="1" stopTime="0.00" timeLoss="22.28" rerouteNo="0" devices="tripinfo_50" vType="DEFAULT_VEHTYPE" speedFactor="1.17" vaporized=""/>
    <tripinfo id="54" depart="54.00" departLane="n2ton4_0" departPos="5.10" departSpeed="0.00" departDelay="0.00" arrival="80.00" arrivalLane="n4ton0_0" arrivalPos="39.60" arrivalSpeed="17.96" duration="26.00" routeLength="94.90" waitingTime="10.00" waitingCount="1" stopTime="0.00" timeLoss="20.08" rerouteNo="0" devices="tripinfo_54" vType="DEFAULT_VEHTYPE" speedFactor="1.18" vaporized=""/>
    <tripinfo id="55" depart="57.00" departLane="n2ton4_0" departPos="5.10" departSpeed="0.00" departDelay="2.00" arrival="83.00" arrivalLane="n4ton3_0" arrivalPos="39.60" arrivalSpeed="15.21" duration="26.00" routeLength="83.13" waitingTime="10.00" waitingCount="1" stopTime="0.00" timeLoss="19.45" rerouteNo="0" devices="tripinfo_55" vType="DEFAULT_VEHTYPE" speedFactor="1.10" vaporized=""/>
    <tripinfo id="56" depart="73.00" departLane="n2ton4_0" departPos="5.10" departSpeed="0.00" departDelay="17.00" arrival="86.00" arrivalLane="n4ton3_0" arrivalPos="39.60" arrivalSpeed="13.05" duration="13.00" routeLength="83.13" waitingTime="0.00" waitingCount="0" stopTime="0.00" timeLoss="6.13" rerouteNo="0" devices="tripinfo_56" vType="DEFAULT_VEHTYPE" speedFactor="0.90" vaporized=""/>
    <tripinfo id="68" depart="76.00" departLane="n2ton4_0" departPos="5.10" departSpeed="0.00" departDelay="8.00" arrival="89.00" arrivalLane="n4ton0_0" arrivalPos="39.60" arrivalSpeed="13.41" duration="13.00" routeLength="94.90" waitingTime="0.00" waitingCount="0" stopTime="0.00" timeLoss="5.50" rerouteNo="0" devices="tripinfo_68" vType="DEFAULT_VEHTYPE" speedFactor="0.88" vaporized=""/>
    <tripinfo id="74" depart="80.00" departLane="n2ton4_0" departPos="5.10" departSpeed="0.00" departDelay="6.00" arrival="90.00" arrivalLane="n4ton0_0" arrivalPos="39.60" arrivalSpeed="16.53" duration="10.00" routeLength="94.90" waitingTime="0.00" waitingCount="0" stopTime="0.00" timeLoss="4.78" rerouteNo="0" devices="tripinfo_74" vType="DEFAULT_VEHTYPE" speedFactor="1.17" vaporized=""/>
    <tripinfo id="81" depart="84.00" departLane="n2ton4_0" departPos="5.10" departSpeed="0.00" departDelay="3.00" arrival="96.00" arrivalLane="n4ton3_0" arrivalPos="39.60" arrivalSpeed="14.56" duration="12.00" routeLength="83.13" waitingTime="0.00" waitingCount="0" stopTime="0.00" timeLoss="5.90" rerouteNo="0" devices="tripinfo_81" vType="DEFAULT_VEHTYPE" speedFactor="1.02" vaporized=""/>
    <tripinfo id="92" depart="92.00" departLane="n2ton4_0" departPos="5.10" departSpeed="0.00" departDelay="0.00" arrival="103.00" arrivalLane="n4ton0_0" arrivalPos="39.60" arrivalSpeed="13.25" duration="11.00" routeLength="94.90" waitingTime="0.00" waitingCount="0" stopTime="0.00" timeLoss="3.42" rerouteNo="0" devices="tripinfo_92" vType="DEFAULT_VEHTYPE" speedFactor="0.88" vaporized=""/>
    <tripinfo id="26" depart="26.00" departLane="n3ton4_0" departPos="5.10" departSpeed="0.00" departDelay="0.00" arrival="118.00" arrivalLane="n4ton1_0" arrivalPos="39.60" arrivalSpeed="15.69" duration="92.00" routeLength="94.90" waitingTime="76.00" waitingCount="1" stopTime="0.00" timeLoss="85.25" rerouteNo="0" devices="tripinfo_26" vType="DEFAULT_VEHTYPE" speedFactor="0.99" vaporized=""/>
    <tripinfo id="36" depart="36.00" departLane="n3ton4_0" departPos="5.10" departSpeed="0.00" departDelay="0.00" arrival="120.00" arrivalLane="n4ton1_0" arrivalPos="39.60" arrivalSpeed="16.12" duration="84.00" routeLength="94.90" waitingTime="68.00" waitingCount="1" stopTime="0.00" timeLoss="77.59" rerouteNo="0" devices="tripinfo_36" vType="DEFAULT_VEHTYPE" speedFactor="1.01" vaporized=""/>
    <tripinfo id="45" depart="45.00" departLane="n3ton4_0" departPos="5.10" departSpeed="0.00" departDelay="0.00" arrival="122.00" arrivalLane="n4ton0_0" arrivalPos="39.60" arrivalSpeed="16.27" duration="77.00" routeLength="83.13" waitingTime="61.00" waitingCount="1" stopTime="0.00" timeLoss="71.16" rerouteNo="0" devices="tripinfo_45" vType="DEFAULT_VEHTYPE" speedFactor="1.13" vaporized=""/>
    <tripinfo id="63" depart="63.00" departLane="n3ton4_0" departPos="5.10" departSpeed="0.00" departDelay="0.00" arrival="125.00" arrivalLane="n4ton0_0" arrivalPos="39.60" arrivalSpeed="14.17" duration="62.00" routeLength="83.13" waitingTime="45.00" waitingCount="1" stopTime="0.00" timeLoss="55.27" rerouteNo="0" devices="tripinfo_63" vType="DEFAULT_VEHTYPE" speedFactor="1.04" vaporized=""/>
</tripinfos>
