<?xml version="1.0" encoding="UTF-8"?>

<!-- generated on Fri Apr 17 23:04:42 2020 by Eclipse SUMO GUI Version 1.5.0
<configuration xmlns:xsi="http://www.w3.org/2001/XMLSchema-instance" xsi:noNamespaceSchemaLocation="http://sumo.dlr.de/xsd/sumoConfiguration.xsd">

    <input>
        <net-file value="my_net.net.xml"/>
        <route-files value="my_route.rou.xml"/>
        <additional-files value="demo.add.xml"/>
    </input>

    <output>
        <tripinfo-output value="tripinfo.xml"/>
    </output>

    <time>
        <begin value="0"/>
        <end value="2000"/>
    </time>

    <traci_server>
        <remote-port value="59310"/>
    </traci_server>

</configuration>
-->

<tripinfos xmlns:xsi="http://www.w3.org/2001/XMLSchema-instance" xsi:noNamespaceSchemaLocation="http://sumo.dlr.de/xsd/tripinfo_file.xsd">
    <tripinfo id="1" depart="1.00" departLane="n3ton4_0" departPos="5.10" departSpeed="0.00" departDelay="0.00" arrival="12.00" arrivalLane="n4ton2_1" arrivalPos="39.60" arrivalSpeed="15.13" duration="11.00" routeLength="93.45" waitingTime="0.00" waitingCount="0" stopTime="0.00" timeLoss="4.59" rerouteNo="0" devices="tripinfo_1" vType="DEFAULT_VEHTYPE" speedFactor="1.06" vaporized=""/>
    <tripinfo id="3" depart="3.00" departLane="n1ton4_0" departPos="5.10" departSpeed="0.00" departDelay="0.00" arrival="14.00" arrivalLane="n4ton0_1" arrivalPos="39.60" arrivalSpeed="14.63" duration="11.00" routeLength="93.45" waitingTime="0.00" waitingCount="0" stopTime="0.00" timeLoss="4.37" rerouteNo="0" devices="tripinfo_3" vType="DEFAULT_VEHTYPE" speedFactor="1.01" vaporized=""/>
    <tripinfo id="7" depart="7.00" departLane="n3ton4_0" departPos="5.10" departSpeed="0.00" departDelay="0.00" arrival="18.00" arrivalLane="n4ton2_1" arrivalPos="39.60" arrivalSpeed="15.57" duration="11.00" routeLength="93.45" waitingTime="0.00" waitingCount="0" stopTime="0.00" timeLoss="4.16" rerouteNo="0" devices="tripinfo_7" vType="DEFAULT_VEHTYPE" speedFactor="1.03" vaporized=""/>
    <tripinfo id="12" depart="12.00" departLane="n3ton4_0" departPos="5.10" departSpeed="0.00" departDelay="0.00" arrival="24.00" arrivalLane="n4ton2_1" arrivalPos="39.60" arrivalSpeed="12.46" duration="12.00" routeLength="93.45" waitingTime="0.00" waitingCount="0" stopTime="0.00" timeLoss="3.64" rerouteNo="0" devices="tripinfo_12" vType="DEFAULT_VEHTYPE" speedFactor="0.86" vaporized=""/>
    <tripinfo id="15" depart="15.00" departLane="n1ton4_0" departPos="5.10" departSpeed="0.00" departDelay="0.00" arrival="27.00" arrivalLane="n4ton0_1" arrivalPos="39.60" arrivalSpeed="15.91" duration="12.00" routeLength="93.45" waitingTime="0.00" waitingCount="0" stopTime="0.00" timeLoss="4.86" rerouteNo="0" devices="tripinfo_15" vType="DEFAULT_VEHTYPE" speedFactor="1.05" vaporized=""/>
    <tripinfo id="21" depart="21.00" departLane="n1ton4_0" departPos="5.10" departSpeed="0.00" departDelay="0.00" arrival="34.00" arrivalLane="n4ton0_1" arrivalPos="39.60" arrivalSpeed="12.77" duration="13.00" routeLength="93.45" waitingTime="0.00" waitingCount="0" stopTime="0.00" timeLoss="4.39" rerouteNo="0" devices="tripinfo_21" vType="DEFAULT_VEHTYPE" speedFactor="0.88" vaporized=""/>
    <tripinfo id="5" depart="5.00" departLane="n1ton4_0" departPos="5.10" departSpeed="0.00" departDelay="0.00" arrival="49.00" arrivalLane="n4ton3_0" arrivalPos="39.60" arrivalSpeed="14.52" duration="44.00" routeLength="94.90" waitingTime="29.00" waitingCount="1" stopTime="0.00" timeLoss="38.45" rerouteNo="0" devices="tripinfo_5" vType="DEFAULT_VEHTYPE" speedFactor="1.08" vaporized=""/>
    <tripinfo id="8" depart="8.00" departLane="n3ton4_0" departPos="5.10" departSpeed="0.00" departDelay="0.00" arrival="50.00" arrivalLane="n4ton1_0" arrivalPos="39.60" arrivalSpeed="13.13" duration="42.00" routeLength="94.90" waitingTime="26.00" waitingCount="1" stopTime="0.00" timeLoss="34.18" rerouteNo="0" devices="tripinfo_8" vType="DEFAULT_VEHTYPE" speedFactor="0.83" vaporized=""/>
    <tripinfo id="16" depart="16.00" departLane="n3ton4_0" departPos="5.10" departSpeed="0.00" departDelay="0.00" arrival="52.00" arrivalLane="n4ton1_0" arrivalPos="39.60" arrivalSpeed="17.58" duration="36.00" routeLength="94.90" waitingTime="20.00" waitingCount="1" stopTime="0.00" timeLoss="30.12" rerouteNo="0" devices="tripinfo_16" vType="DEFAULT_VEHTYPE" speedFactor="1.12" vaporized=""/>
    <tripinfo id="27" depart="27.00" departLane="n1ton4_0" departPos="5.10" departSpeed="0.00" departDelay="0.00" arrival="52.00" arrivalLane="n4ton3_0" arrivalPos="39.60" arrivalSpeed="16.25" duration="25.00" routeLength="94.90" waitingTime="8.00" waitingCount="1" stopTime="0.00" timeLoss="18.45" rerouteNo="0" devices="tripinfo_27" vType="DEFAULT_VEHTYPE" speedFactor="1.02" vaporized=""/>
    <tripinfo id="35" depart="35.00" departLane="n1ton4_0" departPos="5.10" departSpeed="0.00" departDelay="0.00" arrival="54.00" arrivalLane="n4ton3_0" arrivalPos="39.60" arrivalSpeed="17.23" duration="19.00" routeLength="94.90" waitingTime="3.00" waitingCount="1" stopTime="0.00" timeLoss="12.91" rerouteNo="0" devices="tripinfo_35" vType="DEFAULT_VEHTYPE" speedFactor="1.13" vaporized=""/>
    <tripinfo id="20" depart="20.00" departLane="n3ton4_0" departPos="5.10" departSpeed="0.00" departDelay="0.00" arrival="55.00" arrivalLane="n4ton0_0" arrivalPos="39.60" arrivalSpeed="14.31" duration="35.00" routeLength="83.13" waitingTime="18.00" waitingCount="1" stopTime="0.00" timeLoss="27.90" rerouteNo="0" devices="tripinfo_20" vType="DEFAULT_VEHTYPE" speedFactor="0.93" vaporized=""/>
    <tripinfo id="36" depart="38.00" departLane="n1ton4_0" departPos="5.10" departSpeed="0.00" departDelay="2.00" arrival="55.00" arrivalLane="n4ton3_0" arrivalPos="39.60" arrivalSpeed="14.30" duration="17.00" routeLength="94.90" waitingTime="1.00" waitingCount="1" stopTime="0.00" timeLoss="10.48" rerouteNo="0" devices="tripinfo_36" vType="DEFAULT_VEHTYPE" speedFactor="0.93" vaporized=""/>
    <tripinfo id="37" depart="41.00" departLane="n1ton4_0" departPos="5.10" departSpeed="0.00" departDelay="4.00" arrival="57.00" arrivalLane="n4ton3_0" arrivalPos="39.60" arrivalSpeed="18.24" duration="16.00" routeLength="94.90" waitingTime="1.00" waitingCount="1" stopTime="0.00" timeLoss="10.33" rerouteNo="0" devices="tripinfo_37" vType="DEFAULT_VEHTYPE" speedFactor="1.18" vaporized=""/>
    <tripinfo id="23" depart="23.00" departLane="n3ton4_0" departPos="5.10" departSpeed="0.00" departDelay="0.00" arrival="58.00" arrivalLane="n4ton0_0" arrivalPos="39.60" arrivalSpeed="14.77" duration="35.00" routeLength="83.13" waitingTime="16.00" waitingCount="1" stopTime="0.00" timeLoss="27.59" rerouteNo="0" devices="tripinfo_23" vType="DEFAULT_VEHTYPE" speedFactor="0.94" vaporized=""/>
    <tripinfo id="28" depart="28.00" departLane="n3ton4_0" departPos="5.10" departSpeed="0.00" departDelay="0.00" arrival="59.00" arrivalLane="n4ton1_0" arrivalPos="39.60" arrivalSpeed="15.15" duration="31.00" routeLength="94.90" waitingTime="15.00" waitingCount="1" stopTime="0.00" timeLoss="25.12" rerouteNo="0" devices="tripinfo_28" vType="DEFAULT_VEHTYPE" speedFactor="1.01" vaporized=""/>
    <tripinfo id="39" depart="49.00" departLane="n1ton4_0" departPos="5.10" departSpeed="0.00" departDelay="10.00" arrival="59.00" arrivalLane="n4ton3_0" arrivalPos="39.60" arrivalSpeed="14.95" duration="10.00" routeLength="94.90" waitingTime="0.00" waitingCount="0" stopTime="0.00" timeLoss="3.69" rerouteNo="0" devices="tripinfo_39" vType="DEFAULT_VEHTYPE" speedFactor="1.01" vaporized=""/>
    <tripinfo id="29" depart="49.00" departLane="n3ton4_0" departPos="5.10" departSpeed="0.00" departDelay="20.00" arrival="62.00" arrivalLane="n4ton0_0" arrivalPos="39.60" arrivalSpeed="14.56" duration="13.00" routeLength="83.13" waitingTime="0.00" waitingCount="0" stopTime="0.00" timeLoss="6.73" rerouteNo="0" devices="tripinfo_29" vType="DEFAULT_VEHTYPE" speedFactor="0.98" vaporized=""/>
    <tripinfo id="43" depart="52.00" departLane="n1ton4_0" departPos="5.10" departSpeed="0.00" departDelay="9.00" arrival="63.00" arrivalLane="n4ton3_0" arrivalPos="39.60" arrivalSpeed="15.59" duration="11.00" routeLength="94.90" waitingTime="0.00" waitingCount="0" stopTime="0.00" timeLoss="4.15" rerouteNo="0" devices="tripinfo_43" vType="DEFAULT_VEHTYPE" speedFactor="0.99" vaporized=""/>
    <tripinfo id="30" depart="53.00" departLane="n3ton4_0" departPos="5.10" departSpeed="0.00" departDelay="23.00" arrival="64.00" arrivalLane="n4ton1_0" arrivalPos="39.60" arrivalSpeed="13.91" duration="11.00" routeLength="94.90" waitingTime="0.00" waitingCount="0" stopTime="0.00" timeLoss="4.34" rerouteNo="0" devices="tripinfo_30" vType="DEFAULT_VEHTYPE" speedFactor="0.89" vaporized=""/>
    <tripinfo id="33" depart="56.00" departLane="n3ton4_0" departPos="5.10" departSpeed="0.00" departDelay="23.00" arrival="68.00" arrivalLane="n4ton0_0" arrivalPos="39.60" arrivalSpeed="14.39" duration="12.00" routeLength="83.13" waitingTime="0.00" waitingCount="0" stopTime="0.00" timeLoss="5.47" rerouteNo="0" devices="tripinfo_33" vType="DEFAULT_VEHTYPE" speedFactor="0.92" vaporized=""/>
    <tripinfo id="58" depart="58.00" departLane="n1ton4_0" departPos="5.10" departSpeed="0.00" departDelay="0.00" arrival="70.00" arrivalLane="n4ton2_0" arrivalPos="39.60" arrivalSpeed="14.95" duration="12.00" routeLength="83.13" waitingTime="0.00" waitingCount="0" stopTime="0.00" timeLoss="5.95" rerouteNo="0" devices="tripinfo_58" vType="DEFAULT_VEHTYPE" speedFactor="1.04" vaporized=""/>
    <tripinfo id="38" depart="59.00" departLane="n3ton4_0" departPos="5.10" departSpeed="0.00" departDelay="21.00" arrival="71.00" arrivalLane="n4ton1_0" arrivalPos="39.60" arrivalSpeed="17.32" duration="12.00" routeLength="94.90" waitingTime="0.00" waitingCount="0" stopTime="0.00" timeLoss="5.94" rerouteNo="0" devices="tripinfo_38" vType="DEFAULT_VEHTYPE" speedFactor="1.15" vaporized=""/>
    <tripinfo id="46" depart="62.00" departLane="n3ton4_0" departPos="5.10" departSpeed="0.00" departDelay="16.00" arrival="74.00" arrivalLane="n4ton0_0" arrivalPos="39.60" arrivalSpeed="13.17" duration="12.00" routeLength="83.13" waitingTime="0.00" waitingCount="0" stopTime="0.00" timeLoss="5.45" rerouteNo="0" devices="tripinfo_46" vType="DEFAULT_VEHTYPE" speedFactor="0.97" vaporized=""/>
    <tripinfo id="51" depart="65.00" departLane="n3ton4_0" departPos="5.10" departSpeed="0.00" departDelay="14.00" arrival="76.00" arrivalLane="n4ton1_0" arrivalPos="39.60" arrivalSpeed="13.42" duration="11.00" routeLength="94.90" waitingTime="0.00" waitingCount="0" stopTime="0.00" timeLoss="3.81" rerouteNo="0" devices="tripinfo_51" vType="DEFAULT_VEHTYPE" speedFactor="0.90" vaporized=""/>
    <tripinfo id="68" depart="69.00" departLane="n3ton4_0" departPos="5.10" departSpeed="0.00" departDelay="1.00" arrival="81.00" arrivalLane="n4ton0_0" arrivalPos="39.60" arrivalSpeed="15.02" duration="12.00" routeLength="83.13" waitingTime="0.00" waitingCount="0" stopTime="0.00" timeLoss="5.92" rerouteNo="0" devices="tripinfo_68" vType="DEFAULT_VEHTYPE" speedFactor="1.10" vaporized=""/>
    <tripinfo id="74" depart="74.00" departLane="n1ton4_0" departPos="5.10" departSpeed="0.00" departDelay="0.00" arrival="86.00" arrivalLane="n4ton2_0" arrivalPos="39.60" arrivalSpeed="12.17" duration="12.00" routeLength="83.13" waitingTime="0.00" waitingCount="0" stopTime="0.00" timeLoss="5.60" rerouteNo="0" devices="tripinfo_74" vType="DEFAULT_VEHTYPE" speedFactor="0.90" vaporized=""/>
    <tripinfo id="76" depart="77.00" departLane="n1ton4_0" departPos="5.10" departSpeed="0.00" departDelay="1.00" arrival="88.00" arrivalLane="n4ton3_0" arrivalPos="39.60" arrivalSpeed="17.05" duration="11.00" routeLength="94.90" waitingTime="0.00" waitingCount="0" stopTime="0.00" timeLoss="5.65" rerouteNo="0" devices="tripinfo_76" vType="DEFAULT_VEHTYPE" speedFactor="1.14" vaporized=""/>
    <tripinfo id="77" depart="77.00" departLane="n3ton4_0" departPos="5.10" departSpeed="0.00" departDelay="0.00" arrival="88.00" arrivalLane="n4ton1_0" arrivalPos="39.60" arrivalSpeed="15.90" duration="11.00" routeLength="94.90" waitingTime="0.00" waitingCount="0" stopTime="0.00" timeLoss="4.64" rerouteNo="0" devices="tripinfo_77" vType="DEFAULT_VEHTYPE" speedFactor="1.02" vaporized=""/>
    <tripinfo id="2" depart="2.00" departLane="n2ton4_0" departPos="5.10" departSpeed="0.00" departDelay="0.00" arrival="92.00" arrivalLane="n4ton1_1" arrivalPos="39.60" arrivalSpeed="13.94" duration="90.00" routeLength="93.45" waitingTime="75.00" waitingCount="1" stopTime="0.00" timeLoss="82.62" rerouteNo="0" devices="tripinfo_2" vType="DEFAULT_VEHTYPE" speedFactor="0.94" vaporized=""/>
    <tripinfo id="44" depart="44.00" departLane="n0ton4_0" departPos="5.10" departSpeed="0.00" departDelay="0.00" arrival="92.00" arrivalLane="n4ton3_1" arrivalPos="39.60" arrivalSpeed="16.15" duration="48.00" routeLength="93.45" waitingTime="33.00" waitingCount="1" stopTime="0.00" timeLoss="40.72" rerouteNo="0" devices="tripinfo_44" vType="DEFAULT_VEHTYPE" speedFactor="1.02" vaporized=""/>
    <tripinfo id="10" depart="10.00" departLane="n2ton4_0" departPos="5.10" departSpeed="0.00" departDelay="0.00" arrival="95.00" arrivalLane="n4ton1_1" arrivalPos="39.60" arrivalSpeed="13.44" duration="85.00" routeLength="93.45" waitingTime="68.00" waitingCount="1" stopTime="0.00" timeLoss="76.51" rerouteNo="0" devices="tripinfo_10" vType="DEFAULT_VEHTYPE" speedFactor="0.89" vaporized=""/>
    <tripinfo id="9" depart="9.00" departLane="n0ton4_0" departPos="5.10" departSpeed="0.00" departDelay="0.00" arrival="134.00" arrivalLane="n4ton1_0" arrivalPos="39.60" arrivalSpeed="12.93" duration="125.00" routeLength="83.13" waitingTime="109.00" waitingCount="1" stopTime="0.00" timeLoss="119.13" rerouteNo="0" devices="tripinfo_9" vType="DEFAULT_VEHTYPE" speedFactor="1.05" vaporized=""/>
    <tripinfo id="11" depart="11.00" departLane="n2ton4_0" departPos="5.10" departSpeed="0.00" departDelay="0.00" arrival="135.00" arrivalLane="n4ton0_0" arrivalPos="39.60" arrivalSpeed="14.63" duration="124.00" routeLength="94.90" waitingTime="110.00" waitingCount="1" stopTime="0.00" timeLoss="117.12" rerouteNo="0" devices="tripinfo_11" vType="DEFAULT_VEHTYPE" speedFactor="0.94" vaporized=""/>
    <tripinfo id="13" depart="14.00" departLane="n2ton4_0" departPos="5.10" departSpeed="0.00" departDelay="1.00" arrival="137.00" arrivalLane="n4ton0_0" arrivalPos="39.60" arrivalSpeed="17.36" duration="123.00" routeLength="94.90" waitingTime="107.00" waitingCount="1" stopTime="0.00" timeLoss="116.67" rerouteNo="0" devices="tripinfo_13" vType="DEFAULT_VEHTYPE" speedFactor="1.09" vaporized=""/>
    <tripinfo id="19" depart="19.00" departLane="n0ton4_0" departPos="5.10" departSpeed="0.00" departDelay="0.00" arrival="137.00" arrivalLane="n4ton1_0" arrivalPos="39.60" arrivalSpeed="13.16" duration="118.00" routeLength="83.13" waitingTime="101.00" waitingCount="1" stopTime="0.00" timeLoss="111.33" rerouteNo="0" devices="tripinfo_19" vType="DEFAULT_VEHTYPE" speedFactor="0.99" vaporized=""/>
    <tripinfo id="14" depart="17.00" departLane="n2ton4_0" departPos="5.10" departSpeed="0.00" departDelay="3.00" arrival="139.00" arrivalLane="n4ton3_0" arrivalPos="39.60" arrivalSpeed="13.13" duration="122.00" routeLength="83.13" waitingTime="106.00" waitingCount="1" stopTime="0.00" timeLoss="115.37" rerouteNo="0" devices="tripinfo_14" vType="DEFAULT_VEHTYPE" speedFactor="1.03" vaporized=""/>
    <tripinfo id="34" depart="34.00" departLane="n0ton4_0" departPos="5.10" departSpeed="0.00" departDelay="0.00" arrival="139.00" arrivalLane="n4ton2_0" arrivalPos="39.60" arrivalSpeed="14.82" duration="105.00" routeLength="94.90" waitingTime="88.00" waitingCount="1" stopTime="0.00" timeLoss="98.29" rerouteNo="0" devices="tripinfo_34" vType="DEFAULT_VEHTYPE" speedFactor="0.95" vaporized=""/>
    <tripinfo id="25" depart="25.00" departLane="n2ton4_0" departPos="5.10" departSpeed="0.00" departDelay="0.00" arrival="141.00" arrivalLane="n4ton0_0" arrivalPos="39.60" arrivalSpeed="13.77" duration="116.00" routeLength="94.90" waitingTime="100.00" waitingCount="1" stopTime="0.00" timeLoss="108.92" rerouteNo="0" devices="tripinfo_25" vType="DEFAULT_VEHTYPE" speedFactor="0.94" vaporized=""/>
    <tripinfo id="53" depart="53.00" departLane="n0ton4_0" departPos="5.10" departSpeed="0.00" departDelay="0.00" arrival="141.00" arrivalLane="n4ton2_0" arrivalPos="39.60" arrivalSpeed="14.46" duration="88.00" routeLength="94.90" waitingTime="72.00" waitingCount="1" stopTime="0.00" timeLoss="81.02" rerouteNo="0" devices="tripinfo_53" vType="DEFAULT_VEHTYPE" speedFactor="0.96" vaporized=""/>
    <tripinfo id="26" depart="28.00" departLane="n2ton4_0" departPos="5.10" departSpeed="0.00" departDelay="2.00" arrival="143.00" arrivalLane="n4ton3_0" arrivalPos="39.60" arrivalSpeed="13.57" duration="115.00" routeLength="83.13" waitingTime="99.00" waitingCount="1" stopTime="0.00" timeLoss="109.78" rerouteNo="0" devices="tripinfo_26" vType="DEFAULT_VEHTYPE" speedFactor="1.16" vaporized=""/>
    <tripinfo id="59" depart="59.00" departLane="n0ton4_0" departPos="5.10" departSpeed="0.00" departDelay="0.00" arrival="144.00" arrivalLane="n4ton1_0" arrivalPos="39.60" arrivalSpeed="13.75" duration="85.00" routeLength="83.13" waitingTime="69.00" waitingCount="1" stopTime="0.00" timeLoss="78.31" rerouteNo="0" devices="tripinfo_59" vType="DEFAULT_VEHTYPE" speedFactor="1.04" vaporized=""/>
    <tripinfo id="60" depart="134.00" departLane="n0ton4_0" departPos="5.10" departSpeed="0.00" departDelay="74.00" arrival="145.00" arrivalLane="n4ton2_0" arrivalPos="39.60" arrivalSpeed="16.44" duration="11.00" routeLength="94.90" waitingTime="0.00" waitingCount="0" stopTime="0.00" timeLoss="5.25" rerouteNo="0" devices="tripinfo_60" vType="DEFAULT_VEHTYPE" speedFactor="1.09" vaporized=""/>
    <tripinfo id="31" depart="134.00" departLane="n2ton4_0" departPos="5.10" departSpeed="0.00" departDelay="103.00" arrival="146.00" arrivalLane="n4ton3_0" arrivalPos="39.60" arrivalSpeed="12.18" duration="12.00" routeLength="83.13" waitingTime="0.00" waitingCount="0" stopTime="0.00" timeLoss="5.13" rerouteNo="0" devices="tripinfo_31" vType="DEFAULT_VEHTYPE" speedFactor="0.83" vaporized=""/>
    <tripinfo id="70" depart="138.00" departLane="n0ton4_0" departPos="5.10" departSpeed="0.00" departDelay="68.00" arrival="148.00" arrivalLane="n4ton2_0" arrivalPos="39.60" arrivalSpeed="15.62" duration="10.00" routeLength="94.90" waitingTime="0.00" waitingCount="0" stopTime="0.00" timeLoss="3.76" rerouteNo="0" devices="tripinfo_70" vType="DEFAULT_VEHTYPE" speedFactor="1.00" vaporized=""/>
    <tripinfo id="32" depart="137.00" departLane="n2ton4_0" departPos="5.10" departSpeed="0.00" departDelay="105.00" arrival="149.00" arrivalLane="n4ton0_0" arrivalPos="39.60" arrivalSpeed="13.54" duration="12.00" routeLength="94.90" waitingTime="0.00" waitingCount="0" stopTime="0.00" timeLoss="4.40" rerouteNo="0" devices="tripinfo_32" vType="DEFAULT_VEHTYPE" speedFactor="0.87" vaporized=""/>
    <tripinfo id="48" depart="141.00" departLane="n2ton4_0" departPos="5.10" departSpeed="0.00" departDelay="93.00" arrival="151.00" arrivalLane="n4ton0_0" arrivalPos="39.60" arrivalSpeed="16.49" duration="10.00" routeLength="94.90" waitingTime="0.00" waitingCount="0" stopTime="0.00" timeLoss="4.06" rerouteNo="0" devices="tripinfo_48" vType="DEFAULT_VEHTYPE" speedFactor="1.10" vaporized=""/>
    <tripinfo id="72" depart="141.00" departLane="n0ton4_0" departPos="5.10" departSpeed="0.00" departDelay="69.00" arrival="153.00" arrivalLane="n4ton1_0" arrivalPos="39.60" arrivalSpeed="13.89" duration="12.00" routeLength="83.13" waitingTime="0.00" waitingCount="0" stopTime="0.00" timeLoss="5.27" rerouteNo="0" devices="tripinfo_72" vType="DEFAULT_VEHTYPE" speedFactor="1.00" vaporized=""/>
    <tripinfo id="52" depart="144.00" departLane="n2ton4_0" departPos="5.10" departSpeed="0.00" departDelay="92.00" arrival="154.00" arrivalLane="n4ton0_0" arrivalPos="39.60" arrivalSpeed="15.80" duration="10.00" routeLength="94.90" waitingTime="0.00" waitingCount="0" stopTime="0.00" timeLoss="3.83" rerouteNo="0" devices="tripinfo_52" vType="DEFAULT_VEHTYPE" speedFactor="1.03" vaporized=""/>
    <tripinfo id="82" depart="144.00" departLane="n0ton4_0" departPos="5.10" departSpeed="0.00" departDelay="62.00" arrival="156.00" arrivalLane="n4ton1_0" arrivalPos="39.60" arrivalSpeed="12.01" duration="12.00" routeLength="83.13" waitingTime="0.00" waitingCount="0" stopTime="0.00" timeLoss="5.56" rerouteNo="0" devices="tripinfo_82" vType="DEFAULT_VEHTYPE" speedFactor="0.99" vaporized=""/>
    <tripinfo id="61" depart="147.00" departLane="n2ton4_0" departPos="5.10" departSpeed="0.00" departDelay="86.00" arrival="157.00" arrivalLane="n4ton0_0" arrivalPos="39.60" arrivalSpeed="15.81" duration="10.00" routeLength="94.90" waitingTime="0.00" waitingCount="0" stopTime="0.00" timeLoss="3.96" rerouteNo="0" devices="tripinfo_61" vType="DEFAULT_VEHTYPE" speedFactor="1.00" vaporized=""/>
    <tripinfo id="87" depart="148.00" departLane="n0ton4_0" departPos="5.10" departSpeed="0.00" departDelay="61.00" arrival="160.00" arrivalLane="n4ton1_0" arrivalPos="39.60" arrivalSpeed="13.86" duration="12.00" routeLength="83.13" waitingTime="0.00" waitingCount="0" stopTime="0.00" timeLoss="5.21" rerouteNo="0" devices="tripinfo_87" vType="DEFAULT_VEHTYPE" speedFactor="1.04" vaporized=""/>
    <tripinfo id="66" depart="151.00" departLane="n2ton4_0" departPos="5.10" departSpeed="0.00" departDelay="85.00" arrival="161.00" arrivalLane="n4ton0_0" arrivalPos="39.60" arrivalSpeed="17.66" duration="10.00" routeLength="94.90" waitingTime="0.00" waitingCount="0" stopTime="0.00" timeLoss="4.57" rerouteNo="0" devices="tripinfo_66" vType="DEFAULT_VEHTYPE" speedFactor="1.17" vaporized=""/>
    <tripinfo id="67" depart="154.00" departLane="n2ton4_0" departPos="5.10" departSpeed="0.00" departDelay="87.00" arrival="166.00" arrivalLane="n4ton3_0" arrivalPos="39.60" arrivalSpeed="14.00" duration="12.00" routeLength="83.13" waitingTime="0.00" waitingCount="0" stopTime="0.00" timeLoss="5.43" rerouteNo="0" devices="tripinfo_67" vType="DEFAULT_VEHTYPE" speedFactor="1.02" vaporized=""/>
    <tripinfo id="78" depart="157.00" departLane="n2ton4_0" departPos="5.10" departSpeed="0.00" departDelay="79.00" arrival="169.00" arrivalLane="n4ton3_0" arrivalPos="39.60" arrivalSpeed="12.57" duration="12.00" routeLength="83.13" waitingTime="0.00" waitingCount="0" stopTime="0.00" timeLoss="5.98" rerouteNo="0" devices="tripinfo_78" vType="DEFAULT_VEHTYPE" speedFactor="0.97" vaporized=""/>
    <tripinfo id="79" depart="160.00" departLane="n2ton4_0" departPos="5.10" departSpeed="0.00" departDelay="81.00" arrival="172.00" arrivalLane="n4ton3_0" arrivalPos="39.60" arrivalSpeed="15.21" duration="12.00" routeLength="83.13" waitingTime="0.00" waitingCount="0" stopTime="0.00" timeLoss="5.39" rerouteNo="0" devices="tripinfo_79" vType="DEFAULT_VEHTYPE" speedFactor="1.08" vaporized=""/>
    <tripinfo id="81" depart="163.00" departLane="n2ton4_0" departPos="5.10" departSpeed="0.00" departDelay="82.00" arrival="173.00" arrivalLane="n4ton0_0" arrivalPos="39.60" arrivalSpeed="15.73" duration="10.00" routeLength="94.90" waitingTime="0.00" waitingCount="0" stopTime="0.00" timeLoss="3.97" rerouteNo="0" devices="tripinfo_81" vType="DEFAULT_VEHTYPE" speedFactor="1.02" vaporized=""/>
    <tripinfo id="47" depart="55.00" departLane="n1ton4_0" departPos="5.10" departSpeed="0.00" departDelay="8.00" arrival="177.00" arrivalLane="n4ton0_1" arrivalPos="39.60" arrivalSpeed="14.65" duration="122.00" routeLength="93.45" waitingTime="106.00" waitingCount="1" stopTime="0.00" timeLoss="115.84" rerouteNo="0" devices="tripinfo_47" vType="DEFAULT_VEHTYPE" speedFactor="1.18" vaporized=""/>
    <tripinfo id="57" depart="68.00" departLane="n3ton4_0" departPos="5.10" departSpeed="0.00" departDelay="11.00" arrival="177.00" arrivalLane="n4ton2_1" arrivalPos="39.60" arrivalSpeed="16.56" duration="109.00" routeLength="93.45" waitingTime="92.00" waitingCount="1" stopTime="0.00" timeLoss="102.28" rerouteNo="0" devices="tripinfo_57" vType="DEFAULT_VEHTYPE" speedFactor="1.09" vaporized=""/>
    <tripinfo id="86" depart="86.00" departLane="n3ton4_0" departPos="5.10" departSpeed="0.00" departDelay="0.00" arrival="179.00" arrivalLane="n4ton2_1" arrivalPos="39.60" arrivalSpeed="14.00" duration="93.00" routeLength="93.45" waitingTime="76.00" waitingCount="1" stopTime="0.00" timeLoss="85.46" rerouteNo="0" devices="tripinfo_86" vType="DEFAULT_VEHTYPE" speedFactor="0.91" vaporized=""/>
    <tripinfo id="62" depart="62.00" departLane="n1ton4_0" departPos="5.10" departSpeed="0.00" departDelay="0.00" arrival="180.00" arrivalLane="n4ton0_1" arrivalPos="39.60" arrivalSpeed="13.57" duration="118.00" routeLength="93.45" waitingTime="100.00" waitingCount="1" stopTime="0.00" timeLoss="109.68" rerouteNo="0" devices="tripinfo_62" vType="DEFAULT_VEHTYPE" speedFactor="0.90" vaporized=""/>
    <tripinfo id="96" depart="98.00" departLane="n3ton4_0" departPos="5.10" departSpeed="0.00" departDelay="2.00" arrival="181.00" arrivalLane="n4ton2_1" arrivalPos="39.60" arrivalSpeed="13.25" duration="83.00" routeLength="93.45" waitingTime="69.00" waitingCount="1" stopTime="0.00" timeLoss="76.30" rerouteNo="0" devices="tripinfo_96" vType="DEFAULT_VEHTYPE" speedFactor="1.03" vaporized=""/>
    <tripinfo id="63" depart="63.00" departLane="n1ton4_0" departPos="5.10" departSpeed="0.00" departDelay="0.00" arrival="182.00" arrivalLane="n4ton0_1" arrivalPos="39.60" arrivalSpeed="13.17" duration="119.00" routeLength="93.45" waitingTime="100.00" waitingCount="1" stopTime="0.00" timeLoss="110.57" rerouteNo="0" devices="tripinfo_63" vType="DEFAULT_VEHTYPE" speedFactor="0.88" vaporized=""/>
    <tripinfo id="104" depart="104.00" departLane="n3ton4_0" departPos="5.10" departSpeed="0.00" departDelay="0.00" arrival="183.00" arrivalLane="n4ton2_1" arrivalPos="39.60" arrivalSpeed="14.92" duration="79.00" routeLength="93.45" waitingTime="63.00" waitingCount="1" stopTime="0.00" timeLoss="72.88" rerouteNo="0" devices="tripinfo_104" vType="DEFAULT_VEHTYPE" speedFactor="1.15" vaporized=""/>
    <tripinfo id="97" depart="97.00" departLane="n1ton4_0" departPos="5.10" departSpeed="0.00" departDelay="0.00" arrival="184.00" arrivalLane="n4ton0_1" arrivalPos="39.60" arrivalSpeed="14.51" duration="87.00" routeLength="93.45" waitingTime="69.00" waitingCount="1" stopTime="0.00" timeLoss="79.50" rerouteNo="0" devices="tripinfo_97" vType="DEFAULT_VEHTYPE" speedFactor="0.98" vaporized=""/>
    <tripinfo id="100" depart="101.00" departLane="n1ton4_0" departPos="5.10" departSpeed="0.00" departDelay="1.00" arrival="186.00" arrivalLane="n4ton0_1" arrivalPos="39.60" arrivalSpeed="16.11" duration="85.00" routeLength="93.45" waitingTime="69.00" waitingCount="1" stopTime="0.00" timeLoss="77.69" rerouteNo="0" devices="tripinfo_100" vType="DEFAULT_VEHTYPE" speedFactor="1.03" vaporized=""/>
    <tripinfo id="80" depart="80.00" departLane="n3ton4_0" departPos="5.10" departSpeed="0.00" departDelay="0.00" arrival="220.00" arrivalLane="n4ton1_0" arrivalPos="39.60" arrivalSpeed="15.69" duration="140.00" routeLength="94.90" waitingTime="125.00" waitingCount="1" stopTime="0.00" timeLoss="134.32" rerouteNo="0" devices="tripinfo_80" vType="DEFAULT_VEHTYPE" speedFactor="1.12" vaporized=""/>
    <tripinfo id="83" depart="83.00" departLane="n1ton4_0" departPos="5.10" departSpeed="0.00" departDelay="0.00" arrival="220.00" arrivalLane="n4ton3_0" arrivalPos="39.60" arrivalSpeed="14.62" duration="137.00" routeLength="94.90" waitingTime="120.00" waitingCount="1" stopTime="0.00" timeLoss="130.35" rerouteNo="0" devices="tripinfo_83" vType="DEFAULT_VEHTYPE" speedFactor="0.94" vaporized=""/>
    <tripinfo id="89" depart="89.00" departLane="n1ton4_0" departPos="5.10" departSpeed="0.00" departDelay="0.00" arrival="222.00" arrivalLane="n4ton2_0" arrivalPos="39.60" arrivalSpeed="14.01" duration="133.00" routeLength="83.13" waitingTime="117.00" waitingCount="1" stopTime="0.00" timeLoss="126.24" rerouteNo="0" devices="tripinfo_89" vType="DEFAULT_VEHTYPE" speedFactor="1.02" vaporized=""/>
    <tripinfo id="95" depart="95.00" departLane="n3ton4_0" departPos="5.10" departSpeed="0.00" departDelay="0.00" arrival="222.00" arrivalLane="n4ton1_0" arrivalPos="39.60" arrivalSpeed="15.29" duration="127.00" routeLength="94.90" waitingTime="111.00" waitingCount="1" stopTime="0.00" timeLoss="120.28" rerouteNo="0" devices="tripinfo_95" vType="DEFAULT_VEHTYPE" speedFactor="0.98" vaporized=""/>
    <tripinfo id="92" depart="92.00" departLane="n1ton4_0" departPos="5.10" departSpeed="0.00" departDelay="0.00" arrival="224.00" arrivalLane="n4ton3_0" arrivalPos="39.60" arrivalSpeed="14.93" duration="132.00" routeLength="94.90" waitingTime="115.00" waitingCount="1" stopTime="0.00" timeLoss="124.90" rerouteNo="0" devices="tripinfo_92" vType="DEFAULT_VEHTYPE" speedFactor="0.94" vaporized=""/>
    <tripinfo id="99" depart="99.00" departLane="n3ton4_0" departPos="5.10" departSpeed="0.00" departDelay="0.00" arrival="224.00" arrivalLane="n4ton0_0" arrivalPos="39.60" arrivalSpeed="13.95" duration="125.00" routeLength="83.13" waitingTime="108.00" waitingCount="1" stopTime="0.00" timeLoss="119.37" rerouteNo="0" devices="tripinfo_99" vType="DEFAULT_VEHTYPE" speedFactor="1.09" vaporized=""/>
    <tripinfo id="98" depart="98.00" departLane="n1ton4_0" departPos="5.10" departSpeed="0.00" departDelay="0.00" arrival="226.00" arrivalLane="n4ton2_0" arrivalPos="39.60" arrivalSpeed="12.97" duration="128.00" routeLength="83.13" waitingTime="112.00" waitingCount="1" stopTime="0.00" timeLoss="122.06" rerouteNo="0" devices="tripinfo_98" vType="DEFAULT_VEHTYPE" speedFactor="1.01" vaporized=""/>