<?xml version="1.0" encoding="UTF-8"?>

<!-- generated on Tue Apr 21 14:20:04 2020 by Eclipse SUMO GUI Version 1.5.0
<configuration xmlns:xsi="http://www.w3.org/2001/XMLSchema-instance" xsi:noNamespaceSchemaLocation="http://sumo.dlr.de/xsd/sumoConfiguration.xsd">

    <input>
        <net-file value="my_net.net.xml"/>
        <route-files value="my_route.rou.xml"/>
        <additional-files value="demo.add.xml"/>
    </input>

    <output>
        <tripinfo-output value="tripinfo.xml"/>
    </output>

    <time>
        <begin value="0"/>
        <end value="2000"/>
    </time>

    <traci_server>
        <remote-port value="54584"/>
    </traci_server>

</configuration>
-->

<tripinfos xmlns:xsi="http://www.w3.org/2001/XMLSchema-instance" xsi:noNamespaceSchemaLocation="http://sumo.dlr.de/xsd/tripinfo_file.xsd">
    <tripinfo id="0" depart="0.00" departLane="n3ton4_0" departPos="5.10" departSpeed="0.00" departDelay="0.00" arrival="12.00" arrivalLane="n4ton0_0" arrivalPos="39.60" arrivalSpeed="15.17" duration="12.00" routeLength="83.13" waitingTime="0.00" waitingCount="0" stopTime="0.00" timeLoss="5.35" rerouteNo="0" devices="tripinfo_0" vType="DEFAULT_VEHTYPE" speedFactor="1.06" vaporized=""/>
    <tripinfo id="6" depart="6.00" departLane="n3ton4_0" departPos="5.10" departSpeed="0.00" departDelay="0.00" arrival="18.00" arrivalLane="n4ton0_0" arrivalPos="39.60" arrivalSpeed="15.51" duration="12.00" routeLength="83.13" waitingTime="0.00" waitingCount="0" stopTime="0.00" timeLoss="6.01" rerouteNo="0" devices="tripinfo_6" vType="DEFAULT_VEHTYPE" speedFactor="1.08" vaporized=""/>
    <tripinfo id="5" depart="5.00" departLane="n1ton4_0" departPos="5.10" departSpeed="0.00" departDelay="0.00" arrival="20.00" arrivalLane="n4ton2_1" arrivalPos="39.60" arrivalSpeed="13.63" duration="15.00" routeLength="83.13" waitingTime="0.00" waitingCount="0" stopTime="0.00" timeLoss="8.57" rerouteNo="0" devices="tripinfo_5" vType="DEFAULT_VEHTYPE" speedFactor="1.01" vaporized=""/>
    <tripinfo id="8" depart="8.00" departLane="n1ton4_0" departPos="5.10" departSpeed="0.00" departDelay="0.00" arrival="20.00" arrivalLane="n4ton3_0" arrivalPos="39.60" arrivalSpeed="15.67" duration="12.00" routeLength="94.90" waitingTime="0.00" waitingCount="0" stopTime="0.00" timeLoss="5.35" rerouteNo="0" devices="tripinfo_8" vType="DEFAULT_VEHTYPE" speedFactor="1.03" vaporized=""/>
    <tripinfo id="19" depart="19.00" departLane="n0ton4_0" departPos="5.10" departSpeed="0.00" departDelay="0.00" arrival="55.00" arrivalLane="n4ton3_1" arrivalPos="39.60" arrivalSpeed="14.84" duration="36.00" routeLength="93.45" waitingTime="21.00" waitingCount="1" stopTime="0.00" timeLoss="28.26" rerouteNo="0" devices="tripinfo_19" vType="DEFAULT_VEHTYPE" speedFactor="0.94" vaporized=""/>
    <tripinfo id="24" depart="24.00" departLane="n0ton4_0" departPos="5.10" departSpeed="0.00" departDelay="0.00" arrival="57.00" arrivalLane="n4ton3_1" arrivalPos="39.60" arrivalSpeed="13.85" duration="33.00" routeLength="93.45" waitingTime="18.00" waitingCount="1" stopTime="0.00" timeLoss="26.14" rerouteNo="0" devices="tripinfo_24" vType="DEFAULT_VEHTYPE" speedFactor="1.05" vaporized=""/>
    <tripinfo id="39" depart="40.00" departLane="n0ton4_0" departPos="5.10" departSpeed="0.00" departDelay="1.00" arrival="59.00" arrivalLane="n4ton3_1" arrivalPos="39.60" arrivalSpeed="14.23" duration="19.00" routeLength="93.45" waitingTime="2.00" waitingCount="1" stopTime="0.00" timeLoss="11.34" rerouteNo="0" devices="tripinfo_39" vType="DEFAULT_VEHTYPE" speedFactor="0.89" vaporized=""/>
    <tripinfo id="49" depart="49.00" departLane="n2ton4_0" departPos="5.10" departSpeed="0.00" departDelay="0.00" arrival="61.00" arrivalLane="n4ton1_1" arrivalPos="39.60" arrivalSpeed="14.05" duration="12.00" routeLength="93.45" waitingTime="0.00" waitingCount="0" stopTime="0.00" timeLoss="4.77" rerouteNo="0" devices="tripinfo_49" vType="DEFAULT_VEHTYPE" speedFactor="1.01" vaporized=""/>
    <tripinfo id="41" depart="41.00" departLane="n0ton4_0" departPos="5.10" departSpeed="0.00" departDelay="0.00" arrival="62.00" arrivalLane="n4ton3_1" arrivalPos="39.60" arrivalSpeed="13.62" duration="21.00" routeLength="93.45" waitingTime="2.00" waitingCount="1" stopTime="0.00" timeLoss="12.88" rerouteNo="0" devices="tripinfo_41" vType="DEFAULT_VEHTYPE" speedFactor="0.87" vaporized=""/>
    <tripinfo id="47" depart="47.00" departLane="n0ton4_0" departPos="5.10" departSpeed="0.00" departDelay="0.00" arrival="63.00" arrivalLane="n4ton3_1" arrivalPos="39.60" arrivalSpeed="14.30" duration="16.00" routeLength="93.45" waitingTime="1.00" waitingCount="1" stopTime="0.00" timeLoss="10.39" rerouteNo="0" devices="tripinfo_47" vType="DEFAULT_VEHTYPE" speedFactor="1.18" vaporized=""/>
    <tripinfo id="48" depart="51.00" departLane="n0ton4_0" departPos="5.10" departSpeed="0.00" departDelay="3.00" arrival="65.00" arrivalLane="n4ton3_1" arrivalPos="39.60" arrivalSpeed="16.30" duration="14.00" routeLength="93.45" waitingTime="1.00" waitingCount="1" stopTime="0.00" timeLoss="7.95" rerouteNo="0" devices="tripinfo_48" vType="DEFAULT_VEHTYPE" speedFactor="1.15" vaporized=""/>
    <tripinfo id="14" depart="14.00" departLane="n2ton4_0" departPos="5.10" departSpeed="0.00" departDelay="0.00" arrival="73.00" arrivalLane="n4ton3_0" arrivalPos="39.60" arrivalSpeed="13.61" duration="59.00" routeLength="83.13" waitingTime="45.00" waitingCount="1" stopTime="0.00" timeLoss="53.21" rerouteNo="0" devices="tripinfo_14" vType="DEFAULT_VEHTYPE" speedFactor="1.05" vaporized=""/>
    <tripinfo id="29" depart="29.00" departLane="n2ton4_0" departPos="5.10" departSpeed="0.00" departDelay="0.00" arrival="76.00" arrivalLane="n4ton0_0" arrivalPos="39.60" arrivalSpeed="13.92" duration="47.00" routeLength="94.90" waitingTime="30.00" waitingCount="1" stopTime="0.00" timeLoss="39.71" rerouteNo="0" devices="tripinfo_29" vType="DEFAULT_VEHTYPE" speedFactor="0.88" vaporized=""/>
    <tripinfo id="50" depart="50.00" departLane="n2ton4_0" departPos="5.10" departSpeed="0.00" departDelay="0.00" arrival="78.00" arrivalLane="n4ton0_0" arrivalPos="39.60" arrivalSpeed="17.64" duration="28.00" routeLength="94.90" waitingTime="12.00" waitingCount="1" stopTime="0.00" timeLoss="22.28" rerouteNo="0" devices="tripinfo_50" vType="DEFAULT_VEHTYPE" speedFactor="1.17" vaporized=""/>
    <tripinfo id="54" depart="54.00" departLane="n2ton4_0" departPos="5.10" departSpeed="0.00" departDelay="0.00" arrival="80.00" arrivalLane="n4ton0_0" arrivalPos="39.60" arrivalSpeed="17.96" duration="26.00" routeLength="94.90" waitingTime="10.00" waitingCount="1" stopTime="0.00" timeLoss="20.08" rerouteNo="0" devices="tripinfo_54" vType="DEFAULT_VEHTYPE" speedFactor="1.18" vaporized=""/>
    <tripinfo id="55" depart="57.00" departLane="n2ton4_0" departPos="5.10" departSpeed="0.00" departDelay="2.00" arrival="83.00" arrivalLane="n4ton3_0" arrivalPos="39.60" arrivalSpeed="15.21" duration="26.00" routeLength="83.13" waitingTime="10.00" waitingCount="1" stopTime="0.00" timeLoss="19.45" rerouteNo="0" devices="tripinfo_55" vType="DEFAULT_VEHTYPE" speedFactor="1.10" vaporized=""/>
    <tripinfo id="56" depart="73.00" departLane="n2ton4_0" departPos="5.10" departSpeed="0.00" departDelay="17.00" arrival="86.00" arrivalLane="n4ton3_0" arrivalPos="39.60" arrivalSpeed="13.05" duration="13.00" routeLength="83.13" waitingTime="0.00" waitingCount="0" stopTime="0.00" timeLoss="6.13" rerouteNo="0" devices="tripinfo_56" vType="DEFAULT_VEHTYPE" speedFactor="0.90" vaporized=""/>
    <tripinfo id="68" depart="76.00" departLane="n2ton4_0" departPos="5.10" departSpeed="0.00" departDelay="8.00" arrival="89.00" arrivalLane="n4ton0_0" arrivalPos="39.60" arrivalSpeed="13.41" duration="13.00" routeLength="94.90" waitingTime="0.00" waitingCount="0" stopTime="0.00" timeLoss="5.50" rerouteNo="0" devices="tripinfo_68" vType="DEFAULT_VEHTYPE" speedFactor="0.88" vaporized=""/>
    <tripinfo id="74" depart="80.00" departLane="n2ton4_0" departPos="5.10" departSpeed="0.00" departDelay="6.00" arrival="90.00" arrivalLane="n4ton0_0" arrivalPos="39.60" arrivalSpeed="16.53" duration="10.00" routeLength="94.90" waitingTime="0.00" waitingCount="0" stopTime="0.00" timeLoss="4.78" rerouteNo="0" devices="tripinfo_74" vType="DEFAULT_VEHTYPE" speedFactor="1.17" vaporized=""/>
    <tripinfo id="81" depart="84.00" departLane="n2ton4_0" departPos="5.10" departSpeed="0.00" departDelay="3.00" arrival="96.00" arrivalLane="n4ton3_0" arrivalPos="39.60" arrivalSpeed="14.56" duration="12.00" routeLength="83.13" waitingTime="0.00" waitingCount="0" stopTime="0.00" timeLoss="5.90" rerouteNo="0" devices="tripinfo_81" vType="DEFAULT_VEHTYPE" speedFactor="1.02" vaporized=""/>
    <tripinfo id="92" depart="92.00" departLane="n2ton4_0" departPos="5.10" departSpeed="0.00" departDelay="0.00" arrival="103.00" arrivalLane="n4ton0_0" arrivalPos="39.60" arrivalSpeed="13.25" duration="11.00" routeLength="94.90" waitingTime="0.00" waitingCount="0" stopTime="0.00" timeLoss="3.42" rerouteNo="0" devices="tripinfo_92" vType="DEFAULT_VEHTYPE" speedFactor="0.88" vaporized=""/>
    <tripinfo id="26" depart="26.00" departLane="n3ton4_0" departPos="5.10" departSpeed="0.00" departDelay="0.00" arrival="118.00" arrivalLane="n4ton1_0" arrivalPos="39.60" arrivalSpeed="15.69" duration="92.00" routeLength="94.90" waitingTime="76.00" waitingCount="1" stopTime="0.00" timeLoss="85.25" rerouteNo="0" devices="tripinfo_26" vType="DEFAULT_VEHTYPE" speedFactor="0.99" vaporized=""/>
    <tripinfo id="36" depart="36.00" departLane="n3ton4_0" departPos="5.10" departSpeed="0.00" departDelay="0.00" arrival="120.00" arrivalLane="n4ton1_0" arrivalPos="39.60" arrivalSpeed="16.12" duration="84.00" routeLength="94.90" waitingTime="68.00" waitingCount="1" stopTime="0.00" timeLoss="77.59" rerouteNo="0" devices="tripinfo_36" vType="DEFAULT_VEHTYPE" speedFactor="1.01" vaporized=""/>
    <tripinfo id="45" depart="45.00" departLane="n3ton4_0" departPos="5.10" departSpeed="0.00" departDelay="0.00" arrival="122.00" arrivalLane="n4ton0_0" arrivalPos="39.60" arrivalSpeed="16.27" duration="77.00" routeLength="83.13" waitingTime="61.00" waitingCount="1" stopTime="0.00" timeLoss="71.16" rerouteNo="0" devices="tripinfo_45" vType="DEFAULT_VEHTYPE" speedFactor="1.13" vaporized=""/>
    <tripinfo id="63" depart="63.00" departLane="n3ton4_0" departPos="5.10" departSpeed="0.00" departDelay="0.00" arrival="125.00" arrivalLane="n4ton0_0" arrivalPos="39.60" arrivalSpeed="14.17" duration="62.00" routeLength="83.13" waitingTime="45.00" waitingCount="1" stopTime="0.00" timeLoss="55.27" rerouteNo="0" devices="tripinfo_63" vType="DEFAULT_VEHTYPE" speedFactor="1.04" vaporized=""/>
    <tripinfo id="57" depart="68.00" departLane="n0ton4_0" departPos="5.10" departSpeed="0.00" departDelay="11.00" arrival="196.00" arrivalLane="n4ton3_1" arrivalPos="39.60" arrivalSpeed="15.52" duration="128.00" routeLength="93.45" waitingTime="114.00" waitingCount="1" stopTime="0.00" timeLoss="121.54" rerouteNo="0" devices="tripinfo_57" vType="DEFAULT_VEHTYPE" speedFactor="1.03" vaporized=""/>
    <tripinfo id="78" depart="83.00" departLane="n2ton4_0" departPos="5.10" departSpeed="0.00" departDelay="5.00" arrival="197.00" arrivalLane="n4ton1_1" arrivalPos="39.60" arrivalSpeed="14.05" duration="114.00" routeLength="93.45" waitingTime="100.00" waitingCount="1" stopTime="0.00" timeLoss="107.06" rerouteNo="0" devices="tripinfo_78" vType="DEFAULT_VEHTYPE" speedFactor="1.00" vaporized=""/>
    <tripinfo id="116" depart="116.00" departLane="n2ton4_0" departPos="5.10" departSpeed="0.00" departDelay="0.00" arrival="199.00" arrivalLane="n4ton1_1" arrivalPos="39.60" arrivalSpeed="15.67" duration="83.00" routeLength="93.45" waitingTime="67.00" waitingCount="1" stopTime="0.00" timeLoss="75.68" rerouteNo="0" devices="tripinfo_116" vType="DEFAULT_VEHTYPE" speedFactor="1.00" vaporized=""/>
    <tripinfo id="122" depart="122.00" departLane="n2ton4_0" departPos="5.10" departSpeed="0.00" departDelay="0.00" arrival="202.00" arrivalLane="n4ton1_1" arrivalPos="39.60" arrivalSpeed="14.88" duration="80.00" routeLength="93.45" waitingTime="63.00" waitingCount="1" stopTime="0.00" timeLoss="72.32" rerouteNo="0" devices="tripinfo_122" vType="DEFAULT_VEHTYPE" speedFactor="0.98" vaporized=""/>
    <tripinfo id="118" depart="118.00" departLane="n2ton4_0" departPos="5.10" departSpeed="0.00" departDelay="0.00" arrival="204.00" arrivalLane="n4ton0_0" arrivalPos="39.60" arrivalSpeed="14.03" duration="86.00" routeLength="94.90" waitingTime="71.00" waitingCount="1" stopTime="0.00" timeLoss="80.07" rerouteNo="0" devices="tripinfo_118" vType="DEFAULT_VEHTYPE" speedFactor="1.02" vaporized=""/>
    <tripinfo id="125" depart="125.00" departLane="n2ton4_0" departPos="5.10" departSpeed="0.00" departDelay="0.00" arrival="206.00" arrivalLane="n4ton3_0" arrivalPos="39.60" arrivalSpeed="15.20" duration="81.00" routeLength="83.13" waitingTime="64.00" waitingCount="1" stopTime="0.00" timeLoss="74.83" rerouteNo="0" devices="tripinfo_125" vType="DEFAULT_VEHTYPE" speedFactor="1.04" vaporized=""/>
    <tripinfo id="30" depart="30.00" departLane="n0ton4_0" departPos="5.10" departSpeed="0.00" departDelay="0.00" arrival="209.00" arrivalLane="n4ton1_0" arrivalPos="39.60" arrivalSpeed="13.19" duration="179.00" routeLength="83.13" waitingTime="160.00" waitingCount="2" stopTime="0.00" timeLoss="172.84" rerouteNo="0" devices="tripinfo_30" vType="DEFAULT_VEHTYPE" speedFactor="0.94" vaporized=""/>
    <tripinfo id="126" depart="128.00" departLane="n2ton4_0" departPos="5.10" departSpeed="0.00" departDelay="2.00" arrival="209.00" arrivalLane="n4ton3_0" arrivalPos="39.60" arrivalSpeed="13.62" duration="81.00" routeLength="83.13" waitingTime="63.00" waitingCount="1" stopTime="0.00" timeLoss="74.00" rerouteNo="0" devices="tripinfo_126" vType="DEFAULT_VEHTYPE" speedFactor="1.01" vaporized=""/>
    <tripinfo id="136" depart="136.00" departLane="n2ton4_0" departPos="5.10" departSpeed="0.00" departDelay="0.00" arrival="211.00" arrivalLane="n4ton3_0" arrivalPos="39.60" arrivalSpeed="13.50" duration="75.00" routeLength="83.13" waitingTime="59.00" waitingCount="1" stopTime="0.00" timeLoss="69.00" rerouteNo="0" devices="tripinfo_136" vType="DEFAULT_VEHTYPE" speedFactor="1.01" vaporized=""/>
    <tripinfo id="138" depart="139.00" departLane="n2ton4_0" departPos="5.10" departSpeed="0.00" departDelay="1.00" arrival="214.00" arrivalLane="n4ton3_0" arrivalPos="39.60" arrivalSpeed="13.19" duration="75.00" routeLength="83.13" waitingTime="57.00" waitingCount="1" stopTime="0.00" timeLoss="67.88" rerouteNo="0" devices="tripinfo_138" vType="DEFAULT_VEHTYPE" speedFactor="0.91" vaporized=""/>
    <tripinfo id="148" depart="203.00" departLane="n2ton4_0" departPos="5.10" departSpeed="0.00" departDelay="55.00" arrival="216.00" arrivalLane="n4ton0_0" arrivalPos="39.60" arrivalSpeed="15.60" duration="13.00" routeLength="94.90" waitingTime="0.00" waitingCount="0" stopTime="0.00" timeLoss="6.56" rerouteNo="0" devices="tripinfo_148" vType="DEFAULT_VEHTYPE" speedFactor="1.01" vaporized=""/>
    <tripinfo id="154" depart="208.00" departLane="n2ton4_0" departPos="5.10" departSpeed="0.00" departDelay="54.00" arrival="219.00" arrivalLane="n4ton3_0" arrivalPos="39.60" arrivalSpeed="13.16" duration="11.00" routeLength="83.13" waitingTime="0.00" waitingCount="0" stopTime="0.00" timeLoss="4.97" rerouteNo="0" devices="tripinfo_154" vType="DEFAULT_VEHTYPE" speedFactor="0.96" vaporized=""/>
    <tripinfo id="160" depart="210.00" departLane="n2ton4_0" departPos="5.10" departSpeed="0.00" departDelay="50.00" arrival="222.00" arrivalLane="n4ton3_0" arrivalPos="39.60" arrivalSpeed="13.35" duration="12.00" routeLength="83.13" waitingTime="0.00" waitingCount="0" stopTime="0.00" timeLoss="6.43" rerouteNo="0" devices="tripinfo_160" vType="DEFAULT_VEHTYPE" speedFactor="1.10" vaporized=""/>
    <tripinfo id="161" depart="213.00" departLane="n2ton4_0" departPos="5.10" departSpeed="0.00" departDelay="52.00" arrival="224.00" arrivalLane="n4ton0_0" arrivalPos="39.60" arrivalSpeed="14.60" duration="11.00" routeLength="94.90" waitingTime="0.00" waitingCount="0" stopTime="0.00" timeLoss="3.80" rerouteNo="0" devices="tripinfo_161" vType="DEFAULT_VEHTYPE" speedFactor="0.92" vaporized=""/>
    <tripinfo id="167" depart="216.00" departLane="n2ton4_0" departPos="5.10" departSpeed="0.00" departDelay="49.00" arrival="226.00" arrivalLane="n4ton0_0" arrivalPos="39.60" arrivalSpeed="14.02" duration="10.00" routeLength="94.90" waitingTime="0.00" waitingCount="0" stopTime="0.00" timeLoss="3.51" rerouteNo="0" devices="tripinfo_167" vType="DEFAULT_VEHTYPE" speedFactor="0.94" vaporized=""/>
    <tripinfo id="173" depart="219.00" departLane="n2ton4_0" departPos="5.10" departSpeed="0.00" departDelay="46.00" arrival="231.00" arrivalLane="n4ton3_0" arrivalPos="39.60" arrivalSpeed="15.44" duration="12.00" routeLength="83.13" waitingTime="0.00" waitingCount="0" stopTime="0.00" timeLoss="6.19" rerouteNo="0" devices="tripinfo_173" vType="DEFAULT_VEHTYPE" speedFactor="1.15" vaporized=""/>
    <tripinfo id="182" depart="222.00" departLane="n2ton4_0" departPos="5.10" departSpeed="0.00" departDelay="40.00" arrival="234.00" arrivalLane="n4ton3_0" arrivalPos="39.60" arrivalSpeed="13.23" duration="12.00" routeLength="83.13" waitingTime="0.00" waitingCount="0" stopTime="0.00" timeLoss="6.05" rerouteNo="0" devices="tripinfo_182" vType="DEFAULT_VEHTYPE" speedFactor="1.03" vaporized=""/>
    <tripinfo id="190" depart="225.00" departLane="n2ton4_0" departPos="5.10" departSpeed="0.00" departDelay="35.00" arrival="236.00" arrivalLane="n4ton0_0" arrivalPos="39.60" arrivalSpeed="16.87" duration="11.00" routeLength="94.90" waitingTime="0.00" waitingCount="0" stopTime="0.00" timeLoss="4.94" rerouteNo="0" devices="tripinfo_190" vType="DEFAULT_VEHTYPE" speedFactor="1.12" vaporized=""/>
    <tripinfo id="197" depart="229.00" departLane="n2ton4_0" departPos="5.10" departSpeed="0.00" departDelay="32.00" arrival="239.00" arrivalLane="n4ton0_0" arrivalPos="39.60" arrivalSpeed="14.73" duration="10.00" routeLength="94.90" waitingTime="0.00" waitingCount="0" stopTime="0.00" timeLoss="3.11" rerouteNo="0" devices="tripinfo_197" vType="DEFAULT_VEHTYPE" speedFactor="0.94" vaporized=""/>
    <tripinfo id="73" depart="258.00" departLane="n3ton4_0" departPos="5.10" departSpeed="0.00" departDelay="185.00" arrival="271.00" arrivalLane="n4ton0_0" arrivalPos="39.60" arrivalSpeed="11.93" duration="13.00" routeLength="83.13" waitingTime="0.00" waitingCount="0" stopTime="0.00" timeLoss="5.76" rerouteNo="0" devices="tripinfo_73" vType="DEFAULT_VEHTYPE" speedFactor="0.85" vaporized=""/>
    <tripinfo id="75" depart="261.00" departLane="n3ton4_0" departPos="5.10" departSpeed="0.00" departDelay="186.00" arrival="273.00" arrivalLane="n4ton0_0" arrivalPos="39.60" arrivalSpeed="15.07" duration="12.00" routeLength="83.13" waitingTime="0.00" waitingCount="0" stopTime="0.00" timeLoss="5.89" rerouteNo="0" devices="tripinfo_75" vType="DEFAULT_VEHTYPE" speedFactor="1.02" vaporized=""/>
    <tripinfo id="76" depart="264.00" departLane="n3ton4_0" departPos="5.10" departSpeed="0.00" departDelay="188.00" arrival="276.00" arrivalLane="n4ton0_0" arrivalPos="39.60" arrivalSpeed="14.83" duration="12.00" routeLength="83.13" waitingTime="0.00" waitingCount="0" stopTime="0.00" timeLoss="6.19" rerouteNo="0" devices="tripinfo_76" vType="DEFAULT_VEHTYPE" speedFactor="1.10" vaporized=""/>
    <tripinfo id="77" depart="267.00" departLane="n3ton4_0" departPos="5.10" departSpeed="0.00" departDelay="190.00" arrival="279.00" arrivalLane="n4ton0_0" arrivalPos="39.60" arrivalSpeed="13.07" duration="12.00" routeLength="83.13" waitingTime="0.00" waitingCount="0" stopTime="0.00" timeLoss="5.33" rerouteNo="0" devices="tripinfo_77" vType="DEFAULT_VEHTYPE" speedFactor="1.00" vaporized=""/>
    <tripinfo id="1" depart="1.00" departLane="n1ton4_0" departPos="5.10" departSpeed="0.00" departDelay="0.00" arrival="312.00" arrivalLane="n4ton2_0" arrivalPos="39.60" arrivalSpeed="0.05" duration="311.00" routeLength="83.13" waitingTime="301.00" waitingCount="1" stopTime="0.00" timeLoss="305.87" rerouteNo="0" devices="tripinfo_1" vType="DEFAULT_VEHTYPE" speedFactor="0.94" vaporized=""/>
    <tripinfo id="79" depart="209.00" departLane="n0ton4_0" departPos="5.10" departSpeed="0.00" departDelay="130.00" arrival="331.00" arrivalLane="n4ton3_1" arrivalPos="39.60" arrivalSpeed="13.18" duration="122.00" routeLength="93.45" waitingTime="106.00" waitingCount="1" stopTime="0.00" timeLoss="114.26" rerouteNo="0" devices="tripinfo_79" vType="DEFAULT_VEHTYPE" speedFactor="0.90" vaporized=""/>
    <tripinfo id="149" depart="207.00" departLane="n2ton4_0" departPos="5.10" departSpeed="0.00" departDelay="58.00" arrival="331.00" arrivalLane="n4ton1_1" arrivalPos="39.60" arrivalSpeed="13.81" duration="124.00" routeLength="93.45" waitingTime="109.00" waitingCount="1" stopTime="0.00" timeLoss="117.34" rerouteNo="0" devices="tripinfo_149" vType="DEFAULT_VEHTYPE" speedFactor="1.03" vaporized=""/>
    <tripinfo id="209" depart="233.00" departLane="n2ton4_0" departPos="5.10" departSpeed="0.00" departDelay="24.00" arrival="334.00" arrivalLane="n4ton1_1" arrivalPos="39.60" arrivalSpeed="14.65" duration="101.00" routeLength="93.45" waitingTime="79.00" waitingCount="2" stopTime="0.00" timeLoss="93.68" rerouteNo="0" devices="tripinfo_209" vType="DEFAULT_VEHTYPE" speedFactor="0.96" vaporized=""/>
    <tripinfo id="191" depart="228.00" departLane="n2ton4_0" departPos="5.10" departSpeed="0.00" departDelay="37.00" arrival="336.00" arrivalLane="n4ton1_1" arrivalPos="39.60" arrivalSpeed="13.64" duration="108.00" routeLength="93.45" waitingTime="91.00" waitingCount="1" stopTime="0.00" timeLoss="101.13" rerouteNo="0" devices="tripinfo_191" vType="DEFAULT_VEHTYPE" speedFactor="1.02" vaporized=""/>
    <tripinfo id="213" depart="236.00" departLane="n2ton4_0" departPos="5.10" departSpeed="0.00" departDelay="23.00" arrival="337.00" arrivalLane="n4ton3_0" arrivalPos="39.60" arrivalSpeed="13.45" duration="101.00" routeLength="83.13" waitingTime="76.00" waitingCount="1" stopTime="0.00" timeLoss="94.63" rerouteNo="0" devices="tripinfo_213" vType="DEFAULT_VEHTYPE" speedFactor="0.93" vaporized=""/>
    <tripinfo id="205" depart="232.00" departLane="n2ton4_0" departPos="5.10" departSpeed="0.00" departDelay="27.00" arrival="341.00" arrivalLane="n4ton1_1" arrivalPos="39.60" arrivalSpeed="13.73" duration="109.00" routeLength="93.45" waitingTime="90.00" waitingCount="2" stopTime="0.00" timeLoss="100.40" rerouteNo="0" devices="tripinfo_205" vType="DEFAULT_VEHTYPE" speedFactor="0.89" vaporized=""/>
    <tripinfo id="224" depart="243.00" departLane="n2ton4_0" departPos="5.10" departSpeed="0.00" departDelay="19.00" arrival="344.00" arrivalLane="n4ton1_1" arrivalPos="39.60" arrivalSpeed="15.98" duration="101.00" routeLength="93.45" waitingTime="78.00" waitingCount="2" stopTime="0.00" timeLoss="94.12" rerouteNo="0" devices="tripinfo_224" vType="DEFAULT_VEHTYPE" speedFactor="1.08" vaporized=""/>
    <tripinfo id="231" depart="246.00" departLane="n2ton4_0" departPos="5.10" departSpeed="0.00" departDelay="15.00" arrival="344.00" arrivalLane="n4ton0_0" arrivalPos="39.60" arrivalSpeed="13.53" duration="98.00" routeLength="94.90" waitingTime="75.00" waitingCount="1" stopTime="0.00" timeLoss="91.31" rerouteNo="0" devices="tripinfo_231" vType="DEFAULT_VEHTYPE" speedFactor="0.91" vaporized=""/>
    <tripinfo id="220" depart="242.00" departLane="n2ton4_0" departPos="5.10" departSpeed="0.00" departDelay="22.00" arrival="345.00" arrivalLane="n4ton1_1" arrivalPos="39.60" arrivalSpeed="15.82" duration="103.00" routeLength="93.45" waitingTime="82.00" waitingCount="1" stopTime="0.00" timeLoss="97.18" rerouteNo="0" devices="tripinfo_220" vType="DEFAULT_VEHTYPE" speedFactor="1.14" vaporized=""/>
    <tripinfo id="232" depart="251.00" departLane="n2ton4_0" departPos="5.10" departSpeed="0.00" departDelay="19.00" arrival="346.00" arrivalLane="n4ton0_0" arrivalPos="39.60" arrivalSpeed="15.06" duration="95.00" routeLength="94.90" waitingTime="75.00" waitingCount="1" stopTime="0.00" timeLoss="88.77" rerouteNo="0" devices="tripinfo_232" vType="DEFAULT_VEHTYPE" speedFactor="1.00" vaporized=""/>
    <tripinfo id="252" depart="332.00" departLane="n2ton4_0" departPos="5.10" departSpeed="0.00" departDelay="80.00" arrival="348.00" arrivalLane="n4ton1_1" arrivalPos="39.60" arrivalSpeed="15.35" duration="16.00" routeLength="93.45" waitingTime="0.00" waitingCount="0" stopTime="0.00" timeLoss="8.76" rerouteNo="0" devices="tripinfo_252" vType="DEFAULT_VEHTYPE" speedFactor="1.03" vaporized=""/>
    <tripinfo id="253" depart="333.00" departLane="n2ton4_0" departPos="5.10" departSpeed="0.00" departDelay="80.00" arrival="349.00" arrivalLane="n4ton3_0" arrivalPos="39.60" arrivalSpeed="13.57" duration="16.00" routeLength="83.13" waitingTime="0.00" waitingCount="0" stopTime="0.00" timeLoss="10.24" rerouteNo="0" devices="tripinfo_253" vType="DEFAULT_VEHTYPE" speedFactor="1.08" vaporized=""/>
    <tripinfo id="255" depart="337.00" departLane="n2ton4_0" departPos="5.10" departSpeed="0.00" departDelay="82.00" arrival="351.00" arrivalLane="n4ton0_0" arrivalPos="39.60" arrivalSpeed="13.90" duration="14.00" routeLength="94.90" waitingTime="0.00" waitingCount="0" stopTime="0.00" timeLoss="6.79" rerouteNo="0" devices="tripinfo_255" vType="DEFAULT_VEHTYPE" speedFactor="0.92" vaporized=""/>
    <tripinfo id="262" depart="342.00" departLane="n2ton4_0" departPos="5.10" departSpeed="0.00" departDelay="80.00" arrival="353.00" arrivalLane="n4ton0_0" arrivalPos="39.60" arrivalSpeed="14.34" duration="11.00" routeLength="94.90" waitingTime="0.00" waitingCount="0" stopTime="0.00" timeLoss="4.47" rerouteNo="0" devices="tripinfo_262" vType="DEFAULT_VEHTYPE" speedFactor="0.97" vaporized=""/>
    <tripinfo id="260" depart="341.00" departLane="n2ton4_0" departPos="5.10" departSpeed="0.00" departDelay="81.00" arrival="354.00" arrivalLane="n4ton1_1" arrivalPos="39.60" arrivalSpeed="13.99" duration="13.00" routeLength="93.45" waitingTime="0.00" waitingCount="0" stopTime="0.00" timeLoss="4.91" rerouteNo="0" devices="tripinfo_260" vType="DEFAULT_VEHTYPE" speedFactor="0.89" vaporized=""/>
    <tripinfo id="265" depart="345.00" departLane="n2ton4_0" departPos="5.10" departSpeed="0.00" departDelay="80.00" arrival="356.00" arrivalLane="n4ton0_0" arrivalPos="39.60" arrivalSpeed="14.02" duration="11.00" routeLength="94.90" waitingTime="0.00" waitingCount="0" stopTime="0.00" timeLoss="3.53" rerouteNo="0" devices="tripinfo_265" vType="DEFAULT_VEHTYPE" speedFactor="0.90" vaporized=""/>
    <tripinfo id="269" depart="348.00" departLane="n2ton4_0" departPos="5.10" departSpeed="0.00" departDelay="79.00" arrival="358.00" arrivalLane="n4ton0_0" arrivalPos="39.60" arrivalSpeed="15.94" duration="10.00" routeLength="94.90" waitingTime="0.00" waitingCount="0" stopTime="0.00" timeLoss="4.02" rerouteNo="0" devices="tripinfo_269" vType="DEFAULT_VEHTYPE" speedFactor="1.00" vaporized=""/>
    <tripinfo id="270" depart="351.00" departLane="n2ton4_0" departPos="5.10" departSpeed="0.00" departDelay="81.00" arrival="364.00" arrivalLane="n4ton3_0" arrivalPos="39.60" arrivalSpeed="13.16" duration="13.00" routeLength="83.13" waitingTime="0.00" waitingCount="0" stopTime="0.00" timeLoss="5.64" rerouteNo="0" devices="tripinfo_270" vType="DEFAULT_VEHTYPE" speedFactor="0.84" vaporized=""/>
    <tripinfo id="283" depart="355.00" departLane="n2ton4_0" departPos="5.10" departSpeed="0.00" departDelay="72.00" arrival="365.00" arrivalLane="n4ton0_0" arrivalPos="39.60" arrivalSpeed="15.12" duration="10.00" routeLength="94.90" waitingTime="0.00" waitingCount="0" stopTime="0.00" timeLoss="4.16" rerouteNo="0" devices="tripinfo_283" vType="DEFAULT_VEHTYPE" speedFactor="1.02" vaporized=""/>
    <tripinfo id="16" depart="16.00" departLane="n0ton4_0" departPos="5.10" departSpeed="0.00" departDelay="0.00" arrival="368.00" arrivalLane="n4ton2_1" arrivalPos="39.60" arrivalSpeed="0.05" duration="352.00" routeLength="94.90" waitingTime="338.00" waitingCount="2" stopTime="0.00" timeLoss="346.78" rerouteNo="0" devices="tripinfo_16" vType="DEFAULT_VEHTYPE" speedFactor="0.89" vaporized=""/>
    <tripinfo id="285" depart="358.00" departLane="n2ton4_0" departPos="5.10" departSpeed="0.00" departDelay="73.00" arrival="368.00" arrivalLane="n4ton0_0" arrivalPos="39.60" arrivalSpeed="15.28" duration="10.00" routeLength="94.90" waitingTime="0.00" waitingCount="0" stopTime="0.00" timeLoss="3.47" rerouteNo="0" devices="tripinfo_285" vType="DEFAULT_VEHTYPE" speedFactor="1.00" vaporized=""/>
    <tripinfo id="35" depart="35.00" departLane="n3ton4_0" departPos="5.10" departSpeed="0.00" departDelay="0.00" arrival="373.00" arrivalLane="n4ton2_1" arrivalPos="39.60" arrivalSpeed="9.84" duration="338.00" routeLength="93.45" waitingTime="313.00" waitingCount="3" stopTime="0.00" timeLoss="331.58" rerouteNo="0" devices="tripinfo_35" vType="DEFAULT_VEHTYPE" speedFactor="1.02" vaporized=""/>
    <tripinfo id="95" depart="274.00" departLane="n3ton4_0" departPos="5.10" departSpeed="0.00" departDelay="179.00" arrival="405.00" arrivalLane="n4ton1_0" arrivalPos="39.60" arrivalSpeed="13.49" duration="131.00" routeLength="94.90" waitingTime="116.00" waitingCount="1" stopTime="0.00" timeLoss="124.43" rerouteNo="0" devices="tripinfo_95" vType="DEFAULT_VEHTYPE" speedFactor="0.91" vaporized=""/>
    <tripinfo id="103" depart="277.00" departLane="n3ton4_0" departPos="5.10" departSpeed="0.00" departDelay="174.00" arrival="408.00" arrivalLane="n4ton0_0" arrivalPos="39.60" arrivalSpeed="14.40" duration="131.00" routeLength="83.13" waitingTime="114.00" waitingCount="1" stopTime="0.00" timeLoss="124.48" rerouteNo="0" devices="tripinfo_103" vType="DEFAULT_VEHTYPE" speedFactor="1.02" vaporized=""/>