<?xml version="1.0" encoding="UTF-8"?>

<!-- generated on Sat Apr 18 22:06:39 2020 by Eclipse SUMO GUI Version 1.5.0
<configuration xmlns:xsi="http://www.w3.org/2001/XMLSchema-instance" xsi:noNamespaceSchemaLocation="http://sumo.dlr.de/xsd/sumoConfiguration.xsd">

    <input>
        <net-file value="my_net.net.xml"/>
        <route-files value="my_route.rou.xml"/>
        <additional-files value="demo.add.xml"/>
    </input>

    <output>
        <tripinfo-output value="tripinfo.xml"/>
    </output>

    <time>
        <begin value="0"/>
        <end value="2000"/>
    </time>

    <traci_server>
        <remote-port value="52866"/>
    </traci_server>

</configuration>
-->

<tripinfos xmlns:xsi="http://www.w3.org/2001/XMLSchema-instance" xsi:noNamespaceSchemaLocation="http://sumo.dlr.de/xsd/tripinfo_file.xsd">
    <tripinfo id="0" depart="0.00" departLane="n3ton4_0" departPos="5.10" departSpeed="0.00" departDelay="0.00" arrival="12.00" arrivalLane="n4ton0_0" arrivalPos="39.60" arrivalSpeed="15.17" duration="12.00" routeLength="83.13" waitingTime="0.00" waitingCount="0" stopTime="0.00" timeLoss="5.35" rerouteNo="0" devices="tripinfo_0" vType="DEFAULT_VEHTYPE" speedFactor="1.06" vaporized=""/>
    <tripinfo id="6" depart="6.00" departLane="n3ton4_0" departPos="5.10" departSpeed="0.00" departDelay="0.00" arrival="18.00" arrivalLane="n4ton0_0" arrivalPos="39.60" arrivalSpeed="15.51" duration="12.00" routeLength="83.13" waitingTime="0.00" waitingCount="0" stopTime="0.00" timeLoss="6.01" rerouteNo="0" devices="tripinfo_6" vType="DEFAULT_VEHTYPE" speedFactor="1.08" vaporized=""/>
    <tripinfo id="19" depart="19.00" departLane="n0ton4_0" departPos="5.10" departSpeed="0.00" departDelay="0.00" arrival="31.00" arrivalLane="n4ton3_1" arrivalPos="39.60" arrivalSpeed="14.84" duration="12.00" routeLength="93.45" waitingTime="0.00" waitingCount="0" stopTime="0.00" timeLoss="4.03" rerouteNo="0" devices="tripinfo_19" vType="DEFAULT_VEHTYPE" speedFactor="0.94" vaporized=""/>
    <tripinfo id="24" depart="24.00" departLane="n0ton4_0" departPos="5.10" departSpeed="0.00" departDelay="0.00" arrival="35.00" arrivalLane="n4ton3_1" arrivalPos="39.60" arrivalSpeed="13.86" duration="11.00" routeLength="93.45" waitingTime="0.00" waitingCount="0" stopTime="0.00" timeLoss="4.53" rerouteNo="0" devices="tripinfo_24" vType="DEFAULT_VEHTYPE" speedFactor="1.05" vaporized=""/>
    <tripinfo id="14" depart="14.00" departLane="n2ton4_0" departPos="5.10" departSpeed="0.00" departDelay="0.00" arrival="43.00" arrivalLane="n4ton3_0" arrivalPos="39.60" arrivalSpeed="13.66" duration="29.00" routeLength="83.13" waitingTime="15.00" waitingCount="1" stopTime="0.00" timeLoss="23.26" rerouteNo="0" devices="tripinfo_14" vType="DEFAULT_VEHTYPE" speedFactor="1.05" vaporized=""/>
    <tripinfo id="29" depart="29.00" departLane="n2ton4_0" departPos="5.10" departSpeed="0.00" departDelay="0.00" arrival="46.00" arrivalLane="n4ton0_0" arrivalPos="39.60" arrivalSpeed="13.92" duration="17.00" routeLength="94.90" waitingTime="0.00" waitingCount="0" stopTime="0.00" timeLoss="9.63" rerouteNo="0" devices="tripinfo_29" vType="DEFAULT_VEHTYPE" speedFactor="0.88" vaporized=""/>
    <tripinfo id="26" depart="26.00" departLane="n3ton4_0" departPos="5.10" departSpeed="0.00" departDelay="0.00" arrival="59.00" arrivalLane="n4ton1_0" arrivalPos="39.60" arrivalSpeed="15.42" duration="33.00" routeLength="94.90" waitingTime="18.00" waitingCount="1" stopTime="0.00" timeLoss="26.95" rerouteNo="0" devices="tripinfo_26" vType="DEFAULT_VEHTYPE" speedFactor="0.99" vaporized=""/>
    <tripinfo id="36" depart="36.00" departLane="n3ton4_0" departPos="5.10" departSpeed="0.00" departDelay="0.00" arrival="61.00" arrivalLane="n4ton1_0" arrivalPos="39.60" arrivalSpeed="16.12" duration="25.00" routeLength="94.90" waitingTime="10.00" waitingCount="1" stopTime="0.00" timeLoss="18.67" rerouteNo="0" devices="tripinfo_36" vType="DEFAULT_VEHTYPE" speedFactor="1.01" vaporized=""/>
    <tripinfo id="45" depart="45.00" departLane="n3ton4_0" departPos="5.10" departSpeed="0.00" departDelay="0.00" arrival="64.00" arrivalLane="n4ton0_0" arrivalPos="39.60" arrivalSpeed="15.14" duration="19.00" routeLength="83.13" waitingTime="3.00" waitingCount="1" stopTime="0.00" timeLoss="12.52" rerouteNo="0" devices="tripinfo_45" vType="DEFAULT_VEHTYPE" speedFactor="1.13" vaporized=""/>
    <tripinfo id="1" depart="1.00" departLane="n1ton4_0" departPos="5.10" departSpeed="0.00" departDelay="0.00" arrival="70.00" arrivalLane="n4ton2_0" arrivalPos="39.60" arrivalSpeed="0.50" duration="69.00" routeLength="83.13" waitingTime="0.00" waitingCount="0" stopTime="0.00" timeLoss="62.90" rerouteNo="0" devices="tripinfo_1" vType="DEFAULT_VEHTYPE" speedFactor="0.94" vaporized=""/>
    <tripinfo id="63" depart="63.00" departLane="n3ton4_0" departPos="5.10" departSpeed="0.00" departDelay="0.00" arrival="74.00" arrivalLane="n4ton0_0" arrivalPos="39.60" arrivalSpeed="14.65" duration="11.00" routeLength="83.13" waitingTime="0.00" waitingCount="0" stopTime="0.00" timeLoss="4.95" rerouteNo="0" devices="tripinfo_63" vType="DEFAULT_VEHTYPE" speedFactor="1.04" vaporized=""/>
    <tripinfo id="16" depart="16.00" departLane="n0ton4_0" departPos="5.10" departSpeed="0.00" departDelay="0.00" arrival="91.00" arrivalLane="n4ton2_1" arrivalPos="39.60" arrivalSpeed="0.50" duration="75.00" routeLength="94.90" waitingTime="1.00" waitingCount="1" stopTime="0.00" timeLoss="68.28" rerouteNo="0" devices="tripinfo_16" vType="DEFAULT_VEHTYPE" speedFactor="0.89" vaporized=""/>
    <tripinfo id="23" depart="23.00" departLane="n3ton4_0" departPos="5.10" departSpeed="0.00" departDelay="0.00" arrival="94.00" arrivalLane="n4ton2_1" arrivalPos="39.60" arrivalSpeed="6.92" duration="71.00" routeLength="93.45" waitingTime="15.00" waitingCount="1" stopTime="0.00" timeLoss="64.32" rerouteNo="0" devices="tripinfo_23" vType="DEFAULT_VEHTYPE" speedFactor="1.03" vaporized=""/>
    <tripinfo id="39" depart="40.00" departLane="n0ton4_0" departPos="5.10" departSpeed="0.00" departDelay="1.00" arrival="102.00" arrivalLane="n4ton3_1" arrivalPos="39.60" arrivalSpeed="13.83" duration="62.00" routeLength="93.45" waitingTime="47.00" waitingCount="1" stopTime="0.00" timeLoss="54.05" rerouteNo="0" devices="tripinfo_39" vType="DEFAULT_VEHTYPE" speedFactor="0.89" vaporized=""/>
    <tripinfo id="49" depart="49.00" departLane="n2ton4_0" departPos="5.10" departSpeed="0.00" departDelay="0.00" arrival="102.00" arrivalLane="n4ton1_1" arrivalPos="39.60" arrivalSpeed="14.56" duration="53.00" routeLength="93.45" waitingTime="38.00" waitingCount="1" stopTime="0.00" timeLoss="45.87" rerouteNo="0" devices="tripinfo_49" vType="DEFAULT_VEHTYPE" speedFactor="1.01" vaporized=""/>
    <tripinfo id="41" depart="41.00" departLane="n0ton4_0" departPos="5.10" departSpeed="0.00" departDelay="0.00" arrival="105.00" arrivalLane="n4ton3_1" arrivalPos="39.60" arrivalSpeed="12.73" duration="64.00" routeLength="93.45" waitingTime="44.00" waitingCount="1" stopTime="0.00" timeLoss="55.85" rerouteNo="0" devices="tripinfo_41" vType="DEFAULT_VEHTYPE" speedFactor="0.87" vaporized=""/>
    <tripinfo id="47" depart="47.00" departLane="n0ton4_0" departPos="5.10" departSpeed="0.00" departDelay="0.00" arrival="107.00" arrivalLane="n4ton3_1" arrivalPos="39.60" arrivalSpeed="15.55" duration="60.00" routeLength="93.45" waitingTime="43.00" waitingCount="1" stopTime="0.00" timeLoss="53.76" rerouteNo="0" devices="tripinfo_47" vType="DEFAULT_VEHTYPE" speedFactor="1.18" vaporized=""/>
    <tripinfo id="48" depart="48.00" departLane="n0ton4_0" departPos="5.10" departSpeed="0.00" departDelay="0.00" arrival="108.00" arrivalLane="n4ton3_1" arrivalPos="39.60" arrivalSpeed="15.76" duration="60.00" routeLength="93.45" waitingTime="42.00" waitingCount="1" stopTime="0.00" timeLoss="54.04" rerouteNo="0" devices="tripinfo_48" vType="DEFAULT_VEHTYPE" speedFactor="1.15" vaporized=""/>
    <tripinfo id="30" depart="30.00" departLane="n0ton4_0" departPos="5.10" departSpeed="0.00" departDelay="0.00" arrival="109.00" arrivalLane="n4ton1_0" arrivalPos="39.60" arrivalSpeed="14.20" duration="79.00" routeLength="83.13" waitingTime="62.00" waitingCount="1" stopTime="0.00" timeLoss="71.86" rerouteNo="0" devices="tripinfo_30" vType="DEFAULT_VEHTYPE" speedFactor="0.94" vaporized=""/>
    <tripinfo id="57" depart="57.00" departLane="n0ton4_0" departPos="5.10" departSpeed="0.00" departDelay="0.00" arrival="110.00" arrivalLane="n4ton3_1" arrivalPos="39.60" arrivalSpeed="14.86" duration="53.00" routeLength="93.45" waitingTime="39.00" waitingCount="1" stopTime="0.00" timeLoss="46.35" rerouteNo="0" devices="tripinfo_57" vType="DEFAULT_VEHTYPE" speedFactor="1.03" vaporized=""/>
    <tripinfo id="5" depart="5.00" departLane="n1ton4_0" departPos="5.10" departSpeed="0.00" departDelay="0.00" arrival="117.00" arrivalLane="n4ton2_0" arrivalPos="39.60" arrivalSpeed="0.50" duration="112.00" routeLength="83.13" waitingTime="35.00" waitingCount="1" stopTime="0.00" timeLoss="105.95" rerouteNo="0" devices="tripinfo_5" vType="DEFAULT_VEHTYPE" speedFactor="1.01" vaporized=""/>
    <tripinfo id="79" depart="108.00" departLane="n0ton4_0" departPos="5.10" departSpeed="0.00" departDelay="29.00" arrival="121.00" arrivalLane="n4ton3_1" arrivalPos="39.60" arrivalSpeed="14.00" duration="13.00" routeLength="93.45" waitingTime="0.00" waitingCount="0" stopTime="0.00" timeLoss="4.54" rerouteNo="0" devices="tripinfo_79" vType="DEFAULT_VEHTYPE" speedFactor="0.90" vaporized=""/>
    <tripinfo id="50" depart="50.00" departLane="n2ton4_0" departPos="5.10" departSpeed="0.00" departDelay="0.00" arrival="129.00" arrivalLane="n4ton0_0" arrivalPos="39.60" arrivalSpeed="16.97" duration="79.00" routeLength="94.90" waitingTime="63.00" waitingCount="1" stopTime="0.00" timeLoss="73.04" rerouteNo="0" devices="tripinfo_50" vType="DEFAULT_VEHTYPE" speedFactor="1.17" vaporized=""/>
    <tripinfo id="54" depart="54.00" departLane="n2ton4_0" departPos="5.10" departSpeed="0.00" departDelay="0.00" arrival="130.00" arrivalLane="n4ton0_0" arrivalPos="39.60" arrivalSpeed="15.83" duration="76.00" routeLength="94.90" waitingTime="61.00" waitingCount="1" stopTime="0.00" timeLoss="70.71" rerouteNo="0" devices="tripinfo_54" vType="DEFAULT_VEHTYPE" speedFactor="1.18" vaporized=""/>
    <tripinfo id="55" depart="57.00" departLane="n2ton4_0" departPos="5.10" departSpeed="0.00" departDelay="2.00" arrival="133.00" arrivalLane="n4ton3_0" arrivalPos="39.60" arrivalSpeed="14.80" duration="76.00" routeLength="83.13" waitingTime="58.00" waitingCount="1" stopTime="0.00" timeLoss="69.51" rerouteNo="0" devices="tripinfo_55" vType="DEFAULT_VEHTYPE" speedFactor="1.10" vaporized=""/>
    <tripinfo id="56" depart="60.00" departLane="n2ton4_0" departPos="5.10" departSpeed="0.00" departDelay="4.00" arrival="136.00" arrivalLane="n4ton3_0" arrivalPos="39.60" arrivalSpeed="12.85" duration="76.00" routeLength="83.13" waitingTime="58.00" waitingCount="1" stopTime="0.00" timeLoss="68.93" rerouteNo="0" devices="tripinfo_56" vType="DEFAULT_VEHTYPE" speedFactor="0.90" vaporized=""/>
    <tripinfo id="68" depart="68.00" departLane="n2ton4_0" departPos="5.10" departSpeed="0.00" departDelay="0.00" arrival="138.00" arrivalLane="n4ton0_0" arrivalPos="39.60" arrivalSpeed="13.81" duration="70.00" routeLength="94.90" waitingTime="53.00" waitingCount="1" stopTime="0.00" timeLoss="62.46" rerouteNo="0" devices="tripinfo_68" vType="DEFAULT_VEHTYPE" speedFactor="0.88" vaporized=""/>
    <tripinfo id="74" depart="127.00" departLane="n2ton4_0" departPos="5.10" departSpeed="0.00" departDelay="53.00" arrival="139.00" arrivalLane="n4ton0_0" arrivalPos="39.60" arrivalSpeed="16.24" duration="12.00" routeLength="94.90" waitingTime="0.00" waitingCount="0" stopTime="0.00" timeLoss="6.82" rerouteNo="0" devices="tripinfo_74" vType="DEFAULT_VEHTYPE" speedFactor="1.17" vaporized=""/>
    <tripinfo id="81" depart="132.00" departLane="n2ton4_0" departPos="5.10" departSpeed="0.00" departDelay="51.00" arrival="144.00" arrivalLane="n4ton3_0" arrivalPos="39.60" arrivalSpeed="14.02" duration="12.00" routeLength="83.13" waitingTime="0.00" waitingCount="0" stopTime="0.00" timeLoss="5.97" rerouteNo="0" devices="tripinfo_81" vType="DEFAULT_VEHTYPE" speedFactor="1.02" vaporized=""/>
    <tripinfo id="92" depart="135.00" departLane="n2ton4_0" departPos="5.10" departSpeed="0.00" departDelay="43.00" arrival="146.00" arrivalLane="n4ton0_0" arrivalPos="39.60" arrivalSpeed="13.14" duration="11.00" routeLength="94.90" waitingTime="0.00" waitingCount="0" stopTime="0.00" timeLoss="3.66" rerouteNo="0" devices="tripinfo_92" vType="DEFAULT_VEHTYPE" speedFactor="0.88" vaporized=""/>
    <tripinfo id="118" depart="139.00" departLane="n2ton4_0" departPos="5.10" departSpeed="0.00" departDelay="21.00" arrival="149.00" arrivalLane="n4ton0_0" arrivalPos="39.60" arrivalSpeed="16.26" duration="10.00" routeLength="94.90" waitingTime="0.00" waitingCount="0" stopTime="0.00" timeLoss="3.39" rerouteNo="0" devices="tripinfo_118" vType="DEFAULT_VEHTYPE" speedFactor="1.02" vaporized=""/>
    <tripinfo id="125" depart="143.00" departLane="n2ton4_0" departPos="5.10" departSpeed="0.00" departDelay="18.00" arrival="155.00" arrivalLane="n4ton3_0" arrivalPos="39.60" arrivalSpeed="14.96" duration="12.00" routeLength="83.13" waitingTime="0.00" waitingCount="0" stopTime="0.00" timeLoss="5.28" rerouteNo="0" devices="tripinfo_125" vType="DEFAULT_VEHTYPE" speedFactor="1.04" vaporized=""/>
    <tripinfo id="126" depart="146.00" departLane="n2ton4_0" departPos="5.10" departSpeed="0.00" departDelay="20.00" arrival="158.00" arrivalLane="n4ton3_0" arrivalPos="39.60" arrivalSpeed="15.56" duration="12.00" routeLength="83.13" waitingTime="0.00" waitingCount="0" stopTime="0.00" timeLoss="4.81" rerouteNo="0" devices="tripinfo_126" vType="DEFAULT_VEHTYPE" speedFactor="1.01" vaporized=""/>
    <tripinfo id="136" depart="149.00" departLane="n2ton4_0" departPos="5.10" departSpeed="0.00" departDelay="13.00" arrival="161.00" arrivalLane="n4ton3_0" arrivalPos="39.60" arrivalSpeed="12.41" duration="12.00" routeLength="83.13" waitingTime="0.00" waitingCount="0" stopTime="0.00" timeLoss="5.58" rerouteNo="0" devices="tripinfo_136" vType="DEFAULT_VEHTYPE" speedFactor="1.01" vaporized=""/>
    <tripinfo id="138" depart="152.00" departLane="n2ton4_0" departPos="5.10" departSpeed="0.00" departDelay="14.00" arrival="165.00" arrivalLane="n4ton3_0" arrivalPos="39.60" arrivalSpeed="13.38" duration="13.00" routeLength="83.13" waitingTime="0.00" waitingCount="0" stopTime="0.00" timeLoss="6.02" rerouteNo="0" devices="tripinfo_138" vType="DEFAULT_VEHTYPE" speedFactor="0.91" vaporized=""/>
    <tripinfo id="148" depart="155.00" departLane="n2ton4_0" departPos="5.10" departSpeed="0.00" departDelay="7.00" arrival="167.00" arrivalLane="n4ton0_0" arrivalPos="39.60" arrivalSpeed="15.54" duration="12.00" routeLength="94.90" waitingTime="0.00" waitingCount="0" stopTime="0.00" timeLoss="5.35" rerouteNo="0" devices="tripinfo_148" vType="DEFAULT_VEHTYPE" speedFactor="1.01" vaporized=""/>
    <tripinfo id="35" depart="35.00" departLane="n3ton4_0" departPos="5.10" departSpeed="0.00" departDelay="0.00" arrival="171.00" arrivalLane="n4ton2_1" arrivalPos="39.60" arrivalSpeed="15.37" duration="136.00" routeLength="93.45" waitingTime="115.00" waitingCount="2" stopTime="0.00" timeLoss="128.95" rerouteNo="0" devices="tripinfo_35" vType="DEFAULT_VEHTYPE" speedFactor="1.02" vaporized=""/>
    <tripinfo id="66" depart="69.00" departLane="n3ton4_0" departPos="5.10" departSpeed="0.00" departDelay="3.00" arrival="173.00" arrivalLane="n4ton2_1" arrivalPos="39.60" arrivalSpeed="15.05" duration="104.00" routeLength="93.45" waitingTime="86.00" waitingCount="1" stopTime="0.00" timeLoss="97.44" rerouteNo="0" devices="tripinfo_66" vType="DEFAULT_VEHTYPE" speedFactor="1.00" vaporized=""/>
    <tripinfo id="53" depart="53.00" departLane="n3ton4_0" departPos="5.10" departSpeed="0.00" departDelay="0.00" arrival="175.00" arrivalLane="n4ton2_1" arrivalPos="39.60" arrivalSpeed="15.07" duration="122.00" routeLength="93.45" waitingTime="106.00" waitingCount="1" stopTime="0.00" timeLoss="115.24" rerouteNo="0" devices="tripinfo_53" vType="DEFAULT_VEHTYPE" speedFactor="0.97" vaporized=""/>
    <tripinfo id="73" depart="73.00" departLane="n3ton4_0" departPos="5.10" departSpeed="0.00" departDelay="0.00" arrival="176.00" arrivalLane="n4ton0_0" arrivalPos="39.60" arrivalSpeed="12.64" duration="103.00" routeLength="83.13" waitingTime="84.00" waitingCount="1" stopTime="0.00" timeLoss="95.08" rerouteNo="0" devices="tripinfo_73" vType="DEFAULT_VEHTYPE" speedFactor="0.85" vaporized=""/>
    <tripinfo id="64" depart="66.00" departLane="n3ton4_0" departPos="5.10" departSpeed="0.00" departDelay="2.00" arrival="177.00" arrivalLane="n4ton2_1" arrivalPos="39.60" arrivalSpeed="14.79" duration="111.00" routeLength="93.45" waitingTime="95.00" waitingCount="1" stopTime="0.00" timeLoss="104.60" rerouteNo="0" devices="tripinfo_64" vType="DEFAULT_VEHTYPE" speedFactor="1.04" vaporized=""/>
    <tripinfo id="75" depart="76.00" departLane="n3ton4_0" departPos="5.10" departSpeed="0.00" departDelay="1.00" arrival="177.00" arrivalLane="n4ton0_0" arrivalPos="39.60" arrivalSpeed="13.76" duration="101.00" routeLength="83.13" waitingTime="84.00" waitingCount="1" stopTime="0.00" timeLoss="95.24" rerouteNo="0" devices="tripinfo_75" vType="DEFAULT_VEHTYPE" speedFactor="1.02" vaporized=""/>
    <tripinfo id="65" depart="67.00" departLane="n3ton4_0" departPos="5.10" departSpeed="0.00" departDelay="2.00" arrival="179.00" arrivalLane="n4ton2_1" arrivalPos="39.60" arrivalSpeed="14.70" duration="112.00" routeLength="93.45" waitingTime="95.00" waitingCount="1" stopTime="0.00" timeLoss="105.84" rerouteNo="0" devices="tripinfo_65" vType="DEFAULT_VEHTYPE" speedFactor="1.09" vaporized=""/>
    <tripinfo id="76" depart="79.00" departLane="n3ton4_0" departPos="5.10" departSpeed="0.00" departDelay="3.00" arrival="180.00" arrivalLane="n4ton0_0" arrivalPos="39.60" arrivalSpeed="14.94" duration="101.00" routeLength="83.13" waitingTime="84.00" waitingCount="1" stopTime="0.00" timeLoss="95.13" rerouteNo="0" devices="tripinfo_76" vType="DEFAULT_VEHTYPE" speedFactor="1.10" vaporized=""/>
    <tripinfo id="77" depart="82.00" departLane="n3ton4_0" departPos="5.10" departSpeed="0.00" departDelay="5.00" arrival="182.00" arrivalLane="n4ton0_0" arrivalPos="39.60" arrivalSpeed="14.75" duration="100.00" routeLength="83.13" waitingTime="83.00" waitingCount="1" stopTime="0.00" timeLoss="93.84" rerouteNo="0" devices="tripinfo_77" vType="DEFAULT_VEHTYPE" speedFactor="1.00" vaporized=""/>
    <tripinfo id="89" depart="172.00" departLane="n3ton4_0" departPos="5.10" departSpeed="0.00" departDelay="83.00" arrival="184.00" arrivalLane="n4ton2_1" arrivalPos="39.60" arrivalSpeed="14.85" duration="12.00" routeLength="93.45" waitingTime="0.00" waitingCount="0" stopTime="0.00" timeLoss="4.44" rerouteNo="0" devices="tripinfo_89" vType="DEFAULT_VEHTYPE" speedFactor="0.99" vaporized=""/>
    <tripinfo id="95" depart="173.00" departLane="n3ton4_0" departPos="5.10" departSpeed="0.00" departDelay="78.00" arrival="184.00" arrivalLane="n4ton1_0" arrivalPos="39.60" arrivalSpeed="13.49" duration="11.00" routeLength="94.90" waitingTime="0.00" waitingCount="0" stopTime="0.00" timeLoss="4.35" rerouteNo="0" devices="tripinfo_95" vType="DEFAULT_VEHTYPE" speedFactor="0.91" vaporized=""/>
    <tripinfo id="103" depart="176.00" departLane="n3ton4_0" departPos="5.10" departSpeed="0.00" departDelay="73.00" arrival="188.00" arrivalLane="n4ton0_0" arrivalPos="39.60" arrivalSpeed="13.66" duration="12.00" routeLength="83.13" waitingTime="0.00" waitingCount="0" stopTime="0.00" timeLoss="5.50" rerouteNo="0" devices="tripinfo_103" vType="DEFAULT_VEHTYPE" speedFactor="1.02" vaporized=""/>
    <tripinfo id="107" depart="179.00" departLane="n3ton4_0" departPos="5.10" departSpeed="0.00" departDelay="72.00" arrival="189.00" arrivalLane="n4ton1_0" arrivalPos="39.60" arrivalSpeed="15.23" duration="10.00" routeLength="94.90" waitingTime="0.00" waitingCount="0" stopTime="0.00" timeLoss="3.52" rerouteNo="0" devices="tripinfo_107" vType="DEFAULT_VEHTYPE" speedFactor="0.96" vaporized=""/>
    <tripinfo id="113" depart="182.00" departLane="n3ton4_0" departPos="5.10" departSpeed="0.00" departDelay="69.00" arrival="193.00" arrivalLane="n4ton2_1" arrivalPos="39.60" arrivalSpeed="14.32" duration="11.00" routeLength="93.45" waitingTime="0.00" waitingCount="0" stopTime="0.00" timeLoss="4.44" rerouteNo="0" devices="tripinfo_113" vType="DEFAULT_VEHTYPE" speedFactor="1.01" vaporized=""/>
    <tripinfo id="119" depart="183.00" departLane="n3ton4_0" departPos="5.10" departSpeed="0.00" departDelay="64.00" arrival="193.00" arrivalLane="n4ton1_0" arrivalPos="39.60" arrivalSpeed="14.37" duration="10.00" routeLength="94.90" waitingTime="0.00" waitingCount="0" stopTime="0.00" timeLoss="3.50" rerouteNo="0" devices="tripinfo_119" vType="DEFAULT_VEHTYPE" speedFactor="0.97" vaporized=""/>
    <tripinfo id="124" depart="186.00" departLane="n3ton4_0" departPos="5.10" departSpeed="0.00" departDelay="62.00" arrival="198.00" arrivalLane="n4ton0_0" arrivalPos="39.60" arrivalSpeed="13.86" duration="12.00" routeLength="83.13" waitingTime="0.00" waitingCount="0" stopTime="0.00" timeLoss="6.00" rerouteNo="0" devices="tripinfo_124" vType="DEFAULT_VEHTYPE" speedFactor="1.00" vaporized=""/>
</tripinfos>
