<?xml version="1.0" encoding="UTF-8"?>

<!-- generated on Tue Apr 21 12:51:44 2020 by Eclipse SUMO GUI Version 1.5.0
<configuration xmlns:xsi="http://www.w3.org/2001/XMLSchema-instance" xsi:noNamespaceSchemaLocation="http://sumo.dlr.de/xsd/sumoConfiguration.xsd">

    <input>
        <net-file value="my_net.net.xml"/>
        <route-files value="my_route.rou.xml"/>
        <additional-files value="demo.add.xml"/>
    </input>

    <output>
        <tripinfo-output value="tripinfo.xml"/>
    </output>

    <time>
        <begin value="0"/>
        <end value="2000"/>
    </time>

    <traci_server>
        <remote-port value="52927"/>
    </traci_server>

</configuration>
-->

<tripinfos xmlns:xsi="http://www.w3.org/2001/XMLSchema-instance" xsi:noNamespaceSchemaLocation="http://sumo.dlr.de/xsd/tripinfo_file.xsd">
    <tripinfo id="0" depart="0.00" departLane="n3ton4_0" departPos="5.10" departSpeed="0.00" departDelay="0.00" arrival="12.00" arrivalLane="n4ton0_0" arrivalPos="39.60" arrivalSpeed="15.17" duration="12.00" routeLength="83.13" waitingTime="0.00" waitingCount="0" stopTime="0.00" timeLoss="5.35" rerouteNo="0" devices="tripinfo_0" vType="DEFAULT_VEHTYPE" speedFactor="1.06" vaporized=""/>
    <tripinfo id="6" depart="6.00" departLane="n3ton4_0" departPos="5.10" departSpeed="0.00" departDelay="0.00" arrival="18.00" arrivalLane="n4ton0_0" arrivalPos="39.60" arrivalSpeed="15.51" duration="12.00" routeLength="83.13" waitingTime="0.00" waitingCount="0" stopTime="0.00" timeLoss="6.01" rerouteNo="0" devices="tripinfo_6" vType="DEFAULT_VEHTYPE" speedFactor="1.08" vaporized=""/>
    <tripinfo id="19" depart="19.00" departLane="n0ton4_0" departPos="5.10" departSpeed="0.00" departDelay="0.00" arrival="31.00" arrivalLane="n4ton3_1" arrivalPos="39.60" arrivalSpeed="14.84" duration="12.00" routeLength="93.45" waitingTime="0.00" waitingCount="0" stopTime="0.00" timeLoss="4.03" rerouteNo="0" devices="tripinfo_19" vType="DEFAULT_VEHTYPE" speedFactor="0.94" vaporized=""/>
    <tripinfo id="24" depart="24.00" departLane="n0ton4_0" departPos="5.10" departSpeed="0.00" departDelay="0.00" arrival="35.00" arrivalLane="n4ton3_1" arrivalPos="39.60" arrivalSpeed="13.86" duration="11.00" routeLength="93.45" waitingTime="0.00" waitingCount="0" stopTime="0.00" timeLoss="4.53" rerouteNo="0" devices="tripinfo_24" vType="DEFAULT_VEHTYPE" speedFactor="1.05" vaporized=""/>
    <tripinfo id="14" depart="14.00" departLane="n2ton4_0" departPos="5.10" departSpeed="0.00" departDelay="0.00" arrival="43.00" arrivalLane="n4ton3_0" arrivalPos="39.60" arrivalSpeed="13.66" duration="29.00" routeLength="83.13" waitingTime="15.00" waitingCount="1" stopTime="0.00" timeLoss="23.26" rerouteNo="0" devices="tripinfo_14" vType="DEFAULT_VEHTYPE" speedFactor="1.05" vaporized=""/>
    <tripinfo id="29" depart="29.00" departLane="n2ton4_0" departPos="5.10" departSpeed="0.00" departDelay="0.00" arrival="46.00" arrivalLane="n4ton0_0" arrivalPos="39.60" arrivalSpeed="13.92" duration="17.00" routeLength="94.90" waitingTime="0.00" waitingCount="0" stopTime="0.00" timeLoss="9.63" rerouteNo="0" devices="tripinfo_29" vType="DEFAULT_VEHTYPE" speedFactor="0.88" vaporized=""/>
    <tripinfo id="23" depart="23.00" departLane="n3ton4_0" departPos="5.10" departSpeed="0.00" departDelay="0.00" arrival="54.00" arrivalLane="n4ton2_1" arrivalPos="39.60" arrivalSpeed="15.71" duration="31.00" routeLength="93.45" waitingTime="15.00" waitingCount="1" stopTime="0.00" timeLoss="23.85" rerouteNo="0" devices="tripinfo_23" vType="DEFAULT_VEHTYPE" speedFactor="1.03" vaporized=""/>
    <tripinfo id="35" depart="35.00" departLane="n3ton4_0" departPos="5.10" departSpeed="0.00" departDelay="0.00" arrival="56.00" arrivalLane="n4ton2_1" arrivalPos="39.60" arrivalSpeed="15.27" duration="21.00" routeLength="93.45" waitingTime="5.00" waitingCount="1" stopTime="0.00" timeLoss="14.42" rerouteNo="0" devices="tripinfo_35" vType="DEFAULT_VEHTYPE" speedFactor="1.02" vaporized=""/>
    <tripinfo id="26" depart="26.00" departLane="n3ton4_0" departPos="5.10" departSpeed="0.00" departDelay="0.00" arrival="59.00" arrivalLane="n4ton1_0" arrivalPos="39.60" arrivalSpeed="15.42" duration="33.00" routeLength="94.90" waitingTime="18.00" waitingCount="1" stopTime="0.00" timeLoss="26.95" rerouteNo="0" devices="tripinfo_26" vType="DEFAULT_VEHTYPE" speedFactor="0.99" vaporized=""/>
    <tripinfo id="36" depart="36.00" departLane="n3ton4_0" departPos="5.10" departSpeed="0.00" departDelay="0.00" arrival="61.00" arrivalLane="n4ton1_0" arrivalPos="39.60" arrivalSpeed="16.12" duration="25.00" routeLength="94.90" waitingTime="10.00" waitingCount="1" stopTime="0.00" timeLoss="18.67" rerouteNo="0" devices="tripinfo_36" vType="DEFAULT_VEHTYPE" speedFactor="1.01" vaporized=""/>
    <tripinfo id="45" depart="45.00" departLane="n3ton4_0" departPos="5.10" departSpeed="0.00" departDelay="0.00" arrival="64.00" arrivalLane="n4ton0_0" arrivalPos="39.60" arrivalSpeed="15.14" duration="19.00" routeLength="83.13" waitingTime="3.00" waitingCount="1" stopTime="0.00" timeLoss="12.52" rerouteNo="0" devices="tripinfo_45" vType="DEFAULT_VEHTYPE" speedFactor="1.13" vaporized=""/>
    <tripinfo id="53" depart="53.00" departLane="n3ton4_0" departPos="5.10" departSpeed="0.00" departDelay="0.00" arrival="65.00" arrivalLane="n4ton2_1" arrivalPos="39.60" arrivalSpeed="14.28" duration="12.00" routeLength="93.45" waitingTime="0.00" waitingCount="0" stopTime="0.00" timeLoss="4.90" rerouteNo="0" devices="tripinfo_53" vType="DEFAULT_VEHTYPE" speedFactor="0.97" vaporized=""/>
    <tripinfo id="63" depart="63.00" departLane="n3ton4_0" departPos="5.10" departSpeed="0.00" departDelay="0.00" arrival="74.00" arrivalLane="n4ton0_0" arrivalPos="39.60" arrivalSpeed="14.65" duration="11.00" routeLength="83.13" waitingTime="0.00" waitingCount="0" stopTime="0.00" timeLoss="4.95" rerouteNo="0" devices="tripinfo_63" vType="DEFAULT_VEHTYPE" speedFactor="1.04" vaporized=""/>
    <tripinfo id="73" depart="73.00" departLane="n3ton4_0" departPos="5.10" departSpeed="0.00" departDelay="0.00" arrival="86.00" arrivalLane="n4ton0_0" arrivalPos="39.60" arrivalSpeed="13.11" duration="13.00" routeLength="83.13" waitingTime="0.00" waitingCount="0" stopTime="0.00" timeLoss="5.59" rerouteNo="0" devices="tripinfo_73" vType="DEFAULT_VEHTYPE" speedFactor="0.85" vaporized=""/>
    <tripinfo id="75" depart="76.00" departLane="n3ton4_0" departPos="5.10" departSpeed="0.00" departDelay="1.00" arrival="88.00" arrivalLane="n4ton0_0" arrivalPos="39.60" arrivalSpeed="14.17" duration="12.00" routeLength="83.13" waitingTime="0.00" waitingCount="0" stopTime="0.00" timeLoss="6.01" rerouteNo="0" devices="tripinfo_75" vType="DEFAULT_VEHTYPE" speedFactor="1.02" vaporized=""/>
    <tripinfo id="76" depart="79.00" departLane="n3ton4_0" departPos="5.10" departSpeed="0.00" departDelay="3.00" arrival="91.00" arrivalLane="n4ton0_0" arrivalPos="39.60" arrivalSpeed="14.71" duration="12.00" routeLength="83.13" waitingTime="0.00" waitingCount="0" stopTime="0.00" timeLoss="6.16" rerouteNo="0" devices="tripinfo_76" vType="DEFAULT_VEHTYPE" speedFactor="1.10" vaporized=""/>
    <tripinfo id="77" depart="82.00" departLane="n3ton4_0" departPos="5.10" departSpeed="0.00" departDelay="5.00" arrival="94.00" arrivalLane="n4ton0_0" arrivalPos="39.60" arrivalSpeed="13.22" duration="12.00" routeLength="83.13" waitingTime="0.00" waitingCount="0" stopTime="0.00" timeLoss="5.90" rerouteNo="0" devices="tripinfo_77" vType="DEFAULT_VEHTYPE" speedFactor="1.00" vaporized=""/>
    <tripinfo id="39" depart="40.00" departLane="n0ton4_0" departPos="5.10" departSpeed="0.00" departDelay="1.00" arrival="102.00" arrivalLane="n4ton3_1" arrivalPos="39.60" arrivalSpeed="13.89" duration="62.00" routeLength="93.45" waitingTime="47.00" waitingCount="1" stopTime="0.00" timeLoss="54.43" rerouteNo="0" devices="tripinfo_39" vType="DEFAULT_VEHTYPE" speedFactor="0.89" vaporized=""/>
    <tripinfo id="49" depart="49.00" departLane="n2ton4_0" departPos="5.10" departSpeed="0.00" departDelay="0.00" arrival="102.00" arrivalLane="n4ton1_1" arrivalPos="39.60" arrivalSpeed="14.56" duration="53.00" routeLength="93.45" waitingTime="38.00" waitingCount="1" stopTime="0.00" timeLoss="45.87" rerouteNo="0" devices="tripinfo_49" vType="DEFAULT_VEHTYPE" speedFactor="1.01" vaporized=""/>
    <tripinfo id="41" depart="41.00" departLane="n0ton4_0" departPos="5.10" departSpeed="0.00" departDelay="0.00" arrival="105.00" arrivalLane="n4ton3_1" arrivalPos="39.60" arrivalSpeed="13.62" duration="64.00" routeLength="93.45" waitingTime="44.00" waitingCount="1" stopTime="0.00" timeLoss="55.38" rerouteNo="0" devices="tripinfo_41" vType="DEFAULT_VEHTYPE" speedFactor="0.87" vaporized=""/>
    <tripinfo id="47" depart="47.00" departLane="n0ton4_0" departPos="5.10" departSpeed="0.00" departDelay="0.00" arrival="106.00" arrivalLane="n4ton3_1" arrivalPos="39.60" arrivalSpeed="14.31" duration="59.00" routeLength="93.45" waitingTime="43.00" waitingCount="1" stopTime="0.00" timeLoss="53.06" rerouteNo="0" devices="tripinfo_47" vType="DEFAULT_VEHTYPE" speedFactor="1.18" vaporized=""/>
    <tripinfo id="48" depart="48.00" departLane="n0ton4_0" departPos="5.10" departSpeed="0.00" departDelay="0.00" arrival="108.00" arrivalLane="n4ton3_1" arrivalPos="39.60" arrivalSpeed="16.94" duration="60.00" routeLength="93.45" waitingTime="42.00" waitingCount="1" stopTime="0.00" timeLoss="53.66" rerouteNo="0" devices="tripinfo_48" vType="DEFAULT_VEHTYPE" speedFactor="1.15" vaporized=""/>
    <tripinfo id="57" depart="108.00" departLane="n0ton4_0" departPos="5.10" departSpeed="0.00" departDelay="51.00" arrival="120.00" arrivalLane="n4ton3_1" arrivalPos="39.60" arrivalSpeed="15.57" duration="12.00" routeLength="93.45" waitingTime="0.00" waitingCount="0" stopTime="0.00" timeLoss="4.68" rerouteNo="0" devices="tripinfo_57" vType="DEFAULT_VEHTYPE" speedFactor="1.03" vaporized=""/>
    <tripinfo id="50" depart="50.00" departLane="n2ton4_0" departPos="5.10" departSpeed="0.00" departDelay="0.00" arrival="128.00" arrivalLane="n4ton0_0" arrivalPos="39.60" arrivalSpeed="14.68" duration="78.00" routeLength="94.90" waitingTime="63.00" waitingCount="1" stopTime="0.00" timeLoss="72.91" rerouteNo="0" devices="tripinfo_50" vType="DEFAULT_VEHTYPE" speedFactor="1.17" vaporized=""/>
    <tripinfo id="54" depart="54.00" departLane="n2ton4_0" departPos="5.10" departSpeed="0.00" departDelay="0.00" arrival="130.00" arrivalLane="n4ton0_0" arrivalPos="39.60" arrivalSpeed="15.83" duration="76.00" routeLength="94.90" waitingTime="61.00" waitingCount="1" stopTime="0.00" timeLoss="70.63" rerouteNo="0" devices="tripinfo_54" vType="DEFAULT_VEHTYPE" speedFactor="1.18" vaporized=""/>
    <tripinfo id="55" depart="57.00" departLane="n2ton4_0" departPos="5.10" departSpeed="0.00" departDelay="2.00" arrival="133.00" arrivalLane="n4ton3_0" arrivalPos="39.60" arrivalSpeed="14.80" duration="76.00" routeLength="83.13" waitingTime="58.00" waitingCount="1" stopTime="0.00" timeLoss="69.51" rerouteNo="0" devices="tripinfo_55" vType="DEFAULT_VEHTYPE" speedFactor="1.10" vaporized=""/>
    <tripinfo id="56" depart="60.00" departLane="n2ton4_0" departPos="5.10" departSpeed="0.00" departDelay="4.00" arrival="136.00" arrivalLane="n4ton3_0" arrivalPos="39.60" arrivalSpeed="12.85" duration="76.00" routeLength="83.13" waitingTime="58.00" waitingCount="1" stopTime="0.00" timeLoss="68.93" rerouteNo="0" devices="tripinfo_56" vType="DEFAULT_VEHTYPE" speedFactor="0.90" vaporized=""/>
    <tripinfo id="68" depart="68.00" departLane="n2ton4_0" departPos="5.10" departSpeed="0.00" departDelay="0.00" arrival="138.00" arrivalLane="n4ton0_0" arrivalPos="39.60" arrivalSpeed="12.99" duration="70.00" routeLength="94.90" waitingTime="53.00" waitingCount="1" stopTime="0.00" timeLoss="62.55" rerouteNo="0" devices="tripinfo_68" vType="DEFAULT_VEHTYPE" speedFactor="0.88" vaporized=""/>
    <tripinfo id="74" depart="127.00" departLane="n2ton4_0" departPos="5.10" departSpeed="0.00" departDelay="53.00" arrival="139.00" arrivalLane="n4ton0_0" arrivalPos="39.60" arrivalSpeed="15.89" duration="12.00" routeLength="94.90" waitingTime="0.00" waitingCount="0" stopTime="0.00" timeLoss="6.88" rerouteNo="0" devices="tripinfo_74" vType="DEFAULT_VEHTYPE" speedFactor="1.17" vaporized=""/>
    <tripinfo id="81" depart="132.00" departLane="n2ton4_0" departPos="5.10" departSpeed="0.00" departDelay="51.00" arrival="144.00" arrivalLane="n4ton3_0" arrivalPos="39.60" arrivalSpeed="14.02" duration="12.00" routeLength="83.13" waitingTime="0.00" waitingCount="0" stopTime="0.00" timeLoss="5.97" rerouteNo="0" devices="tripinfo_81" vType="DEFAULT_VEHTYPE" speedFactor="1.02" vaporized=""/>
    <tripinfo id="92" depart="135.00" departLane="n2ton4_0" departPos="5.10" departSpeed="0.00" departDelay="43.00" arrival="146.00" arrivalLane="n4ton0_0" arrivalPos="39.60" arrivalSpeed="14.11" duration="11.00" routeLength="94.90" waitingTime="0.00" waitingCount="0" stopTime="0.00" timeLoss="3.64" rerouteNo="0" devices="tripinfo_92" vType="DEFAULT_VEHTYPE" speedFactor="0.88" vaporized=""/>
    <tripinfo id="118" depart="139.00" departLane="n2ton4_0" departPos="5.10" departSpeed="0.00" departDelay="21.00" arrival="149.00" arrivalLane="n4ton0_0" arrivalPos="39.60" arrivalSpeed="15.21" duration="10.00" routeLength="94.90" waitingTime="0.00" waitingCount="0" stopTime="0.00" timeLoss="3.39" rerouteNo="0" devices="tripinfo_118" vType="DEFAULT_VEHTYPE" speedFactor="1.02" vaporized=""/>
    <tripinfo id="125" depart="143.00" departLane="n2ton4_0" departPos="5.10" departSpeed="0.00" departDelay="18.00" arrival="155.00" arrivalLane="n4ton3_0" arrivalPos="39.60" arrivalSpeed="14.96" duration="12.00" routeLength="83.13" waitingTime="0.00" waitingCount="0" stopTime="0.00" timeLoss="5.28" rerouteNo="0" devices="tripinfo_125" vType="DEFAULT_VEHTYPE" speedFactor="1.04" vaporized=""/>
    <tripinfo id="126" depart="146.00" departLane="n2ton4_0" departPos="5.10" departSpeed="0.00" departDelay="20.00" arrival="158.00" arrivalLane="n4ton3_0" arrivalPos="39.60" arrivalSpeed="15.56" duration="12.00" routeLength="83.13" waitingTime="0.00" waitingCount="0" stopTime="0.00" timeLoss="4.81" rerouteNo="0" devices="tripinfo_126" vType="DEFAULT_VEHTYPE" speedFactor="1.01" vaporized=""/>
    <tripinfo id="136" depart="149.00" departLane="n2ton4_0" departPos="5.10" departSpeed="0.00" departDelay="13.00" arrival="161.00" arrivalLane="n4ton3_0" arrivalPos="39.60" arrivalSpeed="12.41" duration="12.00" routeLength="83.13" waitingTime="0.00" waitingCount="0" stopTime="0.00" timeLoss="5.58" rerouteNo="0" devices="tripinfo_136" vType="DEFAULT_VEHTYPE" speedFactor="1.01" vaporized=""/>
    <tripinfo id="138" depart="152.00" departLane="n2ton4_0" departPos="5.10" departSpeed="0.00" departDelay="14.00" arrival="165.00" arrivalLane="n4ton3_0" arrivalPos="39.60" arrivalSpeed="13.38" duration="13.00" routeLength="83.13" waitingTime="0.00" waitingCount="0" stopTime="0.00" timeLoss="6.02" rerouteNo="0" devices="tripinfo_138" vType="DEFAULT_VEHTYPE" speedFactor="0.91" vaporized=""/>
    <tripinfo id="148" depart="155.00" departLane="n2ton4_0" departPos="5.10" departSpeed="0.00" departDelay="7.00" arrival="167.00" arrivalLane="n4ton0_0" arrivalPos="39.60" arrivalSpeed="15.34" duration="12.00" routeLength="94.90" waitingTime="0.00" waitingCount="0" stopTime="0.00" timeLoss="5.30" rerouteNo="0" devices="tripinfo_148" vType="DEFAULT_VEHTYPE" speedFactor="1.01" vaporized=""/>
    <tripinfo id="8" depart="8.00" departLane="n1ton4_0" departPos="5.10" departSpeed="0.00" departDelay="0.00" arrival="171.00" arrivalLane="n4ton3_0" arrivalPos="39.60" arrivalSpeed="16.04" duration="163.00" routeLength="94.90" waitingTime="144.00" waitingCount="2" stopTime="0.00" timeLoss="156.58" rerouteNo="0" devices="tripinfo_8" vType="DEFAULT_VEHTYPE" speedFactor="1.03" vaporized=""/>
    <tripinfo id="95" depart="95.00" departLane="n3ton4_0" departPos="5.10" departSpeed="0.00" departDelay="0.00" arrival="176.00" arrivalLane="n4ton1_0" arrivalPos="39.60" arrivalSpeed="14.48" duration="81.00" routeLength="94.90" waitingTime="65.00" waitingCount="1" stopTime="0.00" timeLoss="73.70" rerouteNo="0" devices="tripinfo_95" vType="DEFAULT_VEHTYPE" speedFactor="0.91" vaporized=""/>
    <tripinfo id="103" depart="103.00" departLane="n3ton4_0" departPos="5.10" departSpeed="0.00" departDelay="0.00" arrival="178.00" arrivalLane="n4ton0_0" arrivalPos="39.60" arrivalSpeed="13.70" duration="75.00" routeLength="83.13" waitingTime="58.00" waitingCount="1" stopTime="0.00" timeLoss="68.39" rerouteNo="0" devices="tripinfo_103" vType="DEFAULT_VEHTYPE" speedFactor="1.02" vaporized=""/>
    <tripinfo id="107" depart="107.00" departLane="n3ton4_0" departPos="5.10" departSpeed="0.00" departDelay="0.00" arrival="180.00" arrivalLane="n4ton1_0" arrivalPos="39.60" arrivalSpeed="14.67" duration="73.00" routeLength="94.90" waitingTime="58.00" waitingCount="1" stopTime="0.00" timeLoss="65.95" rerouteNo="0" devices="tripinfo_107" vType="DEFAULT_VEHTYPE" speedFactor="0.96" vaporized=""/>
    <tripinfo id="78" depart="131.00" departLane="n2ton4_0" departPos="5.10" departSpeed="0.00" departDelay="53.00" arrival="218.00" arrivalLane="n4ton1_1" arrivalPos="39.60" arrivalSpeed="15.15" duration="87.00" routeLength="93.45" waitingTime="70.00" waitingCount="1" stopTime="0.00" timeLoss="79.64" rerouteNo="0" devices="tripinfo_78" vType="DEFAULT_VEHTYPE" speedFactor="1.00" vaporized=""/>
    <tripinfo id="116" depart="138.00" departLane="n2ton4_0" departPos="5.10" departSpeed="0.00" departDelay="22.00" arrival="220.00" arrivalLane="n4ton1_1" arrivalPos="39.60" arrivalSpeed="15.67" duration="82.00" routeLength="93.45" waitingTime="65.00" waitingCount="1" stopTime="0.00" timeLoss="74.66" rerouteNo="0" devices="tripinfo_116" vType="DEFAULT_VEHTYPE" speedFactor="1.00" vaporized=""/>
    <tripinfo id="122" depart="142.00" departLane="n2ton4_0" departPos="5.10" departSpeed="0.00" departDelay="20.00" arrival="222.00" arrivalLane="n4ton1_1" arrivalPos="39.60" arrivalSpeed="14.25" duration="80.00" routeLength="93.45" waitingTime="64.00" waitingCount="1" stopTime="0.00" timeLoss="72.66" rerouteNo="0" devices="tripinfo_122" vType="DEFAULT_VEHTYPE" speedFactor="0.98" vaporized=""/>
    <tripinfo id="154" depart="159.00" departLane="n2ton4_0" departPos="5.10" departSpeed="0.00" departDelay="5.00" arrival="223.00" arrivalLane="n4ton3_0" arrivalPos="39.60" arrivalSpeed="12.96" duration="64.00" routeLength="83.13" waitingTime="49.00" waitingCount="1" stopTime="0.00" timeLoss="57.62" rerouteNo="0" devices="tripinfo_154" vType="DEFAULT_VEHTYPE" speedFactor="0.96" vaporized=""/>
    <tripinfo id="149" depart="158.00" departLane="n2ton4_0" departPos="5.10" departSpeed="0.00" departDelay="9.00" arrival="224.00" arrivalLane="n4ton1_1" arrivalPos="39.60" arrivalSpeed="14.40" duration="66.00" routeLength="93.45" waitingTime="50.00" waitingCount="1" stopTime="0.00" timeLoss="59.05" rerouteNo="0" devices="tripinfo_149" vType="DEFAULT_VEHTYPE" speedFactor="1.03" vaporized=""/>
    <tripinfo id="160" depart="162.00" departLane="n2ton4_0" departPos="5.10" departSpeed="0.00" departDelay="2.00" arrival="225.00" arrivalLane="n4ton3_0" arrivalPos="39.60" arrivalSpeed="13.76" duration="63.00" routeLength="83.13" waitingTime="48.00" waitingCount="1" stopTime="0.00" timeLoss="57.57" rerouteNo="0" devices="tripinfo_160" vType="DEFAULT_VEHTYPE" speedFactor="1.10" vaporized=""/>
    <tripinfo id="161" depart="165.00" departLane="n2ton4_0" departPos="5.10" departSpeed="0.00" departDelay="4.00" arrival="227.00" arrivalLane="n4ton0_0" arrivalPos="39.60" arrivalSpeed="14.33" duration="62.00" routeLength="94.90" waitingTime="47.00" waitingCount="1" stopTime="0.00" timeLoss="55.41" rerouteNo="0" devices="tripinfo_161" vType="DEFAULT_VEHTYPE" speedFactor="0.92" vaporized=""/>
    <tripinfo id="167" depart="168.00" departLane="n2ton4_0" departPos="5.10" departSpeed="0.00" departDelay="1.00" arrival="229.00" arrivalLane="n4ton0_0" arrivalPos="39.60" arrivalSpeed="13.77" duration="61.00" routeLength="94.90" waitingTime="46.00" waitingCount="1" stopTime="0.00" timeLoss="54.52" rerouteNo="0" devices="tripinfo_167" vType="DEFAULT_VEHTYPE" speedFactor="0.94" vaporized=""/>
    <tripinfo id="30" depart="30.00" departLane="n0ton4_0" departPos="5.10" departSpeed="0.00" departDelay="0.00" arrival="231.00" arrivalLane="n4ton1_0" arrivalPos="39.60" arrivalSpeed="13.05" duration="201.00" routeLength="83.13" waitingTime="184.00" waitingCount="2" stopTime="0.00" timeLoss="194.83" rerouteNo="0" devices="tripinfo_30" vType="DEFAULT_VEHTYPE" speedFactor="0.94" vaporized=""/>
    <tripinfo id="173" depart="173.00" departLane="n2ton4_0" departPos="5.10" departSpeed="0.00" departDelay="0.00" arrival="232.00" arrivalLane="n4ton3_0" arrivalPos="39.60" arrivalSpeed="15.71" duration="59.00" routeLength="83.13" waitingTime="43.00" waitingCount="1" stopTime="0.00" timeLoss="53.18" rerouteNo="0" devices="tripinfo_173" vType="DEFAULT_VEHTYPE" speedFactor="1.15" vaporized=""/>
    <tripinfo id="182" depart="223.00" departLane="n2ton4_0" departPos="5.10" departSpeed="0.00" departDelay="41.00" arrival="235.00" arrivalLane="n4ton3_0" arrivalPos="39.60" arrivalSpeed="12.94" duration="12.00" routeLength="83.13" waitingTime="0.00" waitingCount="0" stopTime="0.00" timeLoss="6.08" rerouteNo="0" devices="tripinfo_182" vType="DEFAULT_VEHTYPE" speedFactor="1.03" vaporized=""/>
    <tripinfo id="190" depart="226.00" departLane="n2ton4_0" departPos="5.10" departSpeed="0.00" departDelay="36.00" arrival="236.00" arrivalLane="n4ton0_0" arrivalPos="39.60" arrivalSpeed="17.74" duration="10.00" routeLength="94.90" waitingTime="0.00" waitingCount="0" stopTime="0.00" timeLoss="4.22" rerouteNo="0" devices="tripinfo_190" vType="DEFAULT_VEHTYPE" speedFactor="1.12" vaporized=""/>
    <tripinfo id="197" depart="230.00" departLane="n2ton4_0" departPos="5.10" departSpeed="0.00" departDelay="33.00" arrival="240.00" arrivalLane="n4ton0_0" arrivalPos="39.60" arrivalSpeed="14.39" duration="10.00" routeLength="94.90" waitingTime="0.00" waitingCount="0" stopTime="0.00" timeLoss="3.37" rerouteNo="0" devices="tripinfo_197" vType="DEFAULT_VEHTYPE" speedFactor="0.94" vaporized=""/>
    <tripinfo id="213" depart="236.00" departLane="n2ton4_0" departPos="5.10" departSpeed="0.00" departDelay="23.00" arrival="248.00" arrivalLane="n4ton3_0" arrivalPos="39.60" arrivalSpeed="13.80" duration="12.00" routeLength="83.13" waitingTime="0.00" waitingCount="0" stopTime="0.00" timeLoss="5.57" rerouteNo="0" devices="tripinfo_213" vType="DEFAULT_VEHTYPE" speedFactor="0.93" vaporized=""/>
    <tripinfo id="1" depart="1.00" departLane="n1ton4_0" departPos="5.10" departSpeed="0.00" departDelay="0.00" arrival="312.00" arrivalLane="n4ton2_0" arrivalPos="39.60" arrivalSpeed="0.05" duration="311.00" routeLength="83.13" waitingTime="301.00" waitingCount="1" stopTime="0.00" timeLoss="305.87" rerouteNo="0" devices="tripinfo_1" vType="DEFAULT_VEHTYPE" speedFactor="0.94" vaporized=""/>
    <tripinfo id="79" depart="231.00" departLane="n0ton4_0" departPos="5.10" departSpeed="0.00" departDelay="152.00" arrival="314.00" arrivalLane="n4ton3_1" arrivalPos="39.60" arrivalSpeed="12.48" duration="83.00" routeLength="93.45" waitingTime="67.00" waitingCount="2" stopTime="0.00" timeLoss="75.42" rerouteNo="0" devices="tripinfo_79" vType="DEFAULT_VEHTYPE" speedFactor="0.90" vaporized=""/>
    <tripinfo id="191" depart="229.00" departLane="n2ton4_0" departPos="5.10" departSpeed="0.00" departDelay="38.00" arrival="314.00" arrivalLane="n4ton1_1" arrivalPos="39.60" arrivalSpeed="16.23" duration="85.00" routeLength="93.45" waitingTime="70.00" waitingCount="1" stopTime="0.00" timeLoss="77.70" rerouteNo="0" devices="tripinfo_191" vType="DEFAULT_VEHTYPE" speedFactor="1.02" vaporized=""/>
    <tripinfo id="224" depart="240.00" departLane="n2ton4_0" departPos="5.10" departSpeed="0.00" departDelay="16.00" arrival="317.00" arrivalLane="n4ton1_1" arrivalPos="39.60" arrivalSpeed="13.53" duration="77.00" routeLength="93.45" waitingTime="57.00" waitingCount="2" stopTime="0.00" timeLoss="70.86" rerouteNo="0" devices="tripinfo_224" vType="DEFAULT_VEHTYPE" speedFactor="1.08" vaporized=""/>
    <tripinfo id="205" depart="233.00" departLane="n2ton4_0" departPos="5.10" departSpeed="0.00" departDelay="28.00" arrival="320.00" arrivalLane="n4ton1_1" arrivalPos="39.60" arrivalSpeed="13.73" duration="87.00" routeLength="93.45" waitingTime="70.00" waitingCount="1" stopTime="0.00" timeLoss="78.62" rerouteNo="0" devices="tripinfo_205" vType="DEFAULT_VEHTYPE" speedFactor="0.89" vaporized=""/>
    <tripinfo id="231" depart="243.00" departLane="n2ton4_0" departPos="5.10" departSpeed="0.00" departDelay="12.00" arrival="321.00" arrivalLane="n4ton0_0" arrivalPos="39.60" arrivalSpeed="13.62" duration="78.00" routeLength="94.90" waitingTime="55.00" waitingCount="2" stopTime="0.00" timeLoss="70.79" rerouteNo="0" devices="tripinfo_231" vType="DEFAULT_VEHTYPE" speedFactor="0.91" vaporized=""/>
    <tripinfo id="209" depart="234.00" departLane="n2ton4_0" departPos="5.10" departSpeed="0.00" departDelay="25.00" arrival="322.00" arrivalLane="n4ton1_1" arrivalPos="39.60" arrivalSpeed="15.05" duration="88.00" routeLength="93.45" waitingTime="69.00" waitingCount="1" stopTime="0.00" timeLoss="80.32" rerouteNo="0" devices="tripinfo_209" vType="DEFAULT_VEHTYPE" speedFactor="0.96" vaporized=""/>
    <tripinfo id="232" depart="248.00" departLane="n2ton4_0" departPos="5.10" departSpeed="0.00" departDelay="16.00" arrival="322.00" arrivalLane="n4ton0_0" arrivalPos="39.60" arrivalSpeed="14.85" duration="74.00" routeLength="94.90" waitingTime="54.00" waitingCount="1" stopTime="0.00" timeLoss="67.94" rerouteNo="0" devices="tripinfo_232" vType="DEFAULT_VEHTYPE" speedFactor="1.00" vaporized=""/>
    <tripinfo id="220" depart="239.00" departLane="n2ton4_0" departPos="5.10" departSpeed="0.00" departDelay="19.00" arrival="323.00" arrivalLane="n4ton1_1" arrivalPos="39.60" arrivalSpeed="15.52" duration="84.00" routeLength="93.45" waitingTime="68.00" waitingCount="1" stopTime="0.00" timeLoss="78.02" rerouteNo="0" devices="tripinfo_220" vType="DEFAULT_VEHTYPE" speedFactor="1.14" vaporized=""/>
    <tripinfo id="252" depart="252.00" departLane="n2ton4_0" departPos="5.10" departSpeed="0.00" departDelay="0.00" arrival="325.00" arrivalLane="n4ton1_1" arrivalPos="39.60" arrivalSpeed="15.02" duration="73.00" routeLength="93.45" waitingTime="57.00" waitingCount="1" stopTime="0.00" timeLoss="66.54" rerouteNo="0" devices="tripinfo_252" vType="DEFAULT_VEHTYPE" speedFactor="1.03" vaporized=""/>
    <tripinfo id="253" depart="253.00" departLane="n2ton4_0" departPos="5.10" departSpeed="0.00" departDelay="0.00" arrival="325.00" arrivalLane="n4ton3_0" arrivalPos="39.60" arrivalSpeed="13.86" duration="72.00" routeLength="83.13" waitingTime="53.00" waitingCount="1" stopTime="0.00" timeLoss="65.68" rerouteNo="0" devices="tripinfo_253" vType="DEFAULT_VEHTYPE" speedFactor="1.08" vaporized=""/>
    <tripinfo id="255" depart="256.00" departLane="n2ton4_0" departPos="5.10" departSpeed="0.00" departDelay="1.00" arrival="327.00" arrivalLane="n4ton0_0" arrivalPos="39.60" arrivalSpeed="13.99" duration="71.00" routeLength="94.90" waitingTime="52.00" waitingCount="1" stopTime="0.00" timeLoss="63.59" rerouteNo="0" devices="tripinfo_255" vType="DEFAULT_VEHTYPE" speedFactor="0.92" vaporized=""/>
    <tripinfo id="262" depart="317.00" departLane="n2ton4_0" departPos="5.10" departSpeed="0.00" departDelay="55.00" arrival="328.00" arrivalLane="n4ton0_0" arrivalPos="39.60" arrivalSpeed="15.31" duration="11.00" routeLength="94.90" waitingTime="0.00" waitingCount="0" stopTime="0.00" timeLoss="4.66" rerouteNo="0" devices="tripinfo_262" vType="DEFAULT_VEHTYPE" speedFactor="0.97" vaporized=""/>
    <tripinfo id="260" depart="314.00" departLane="n2ton4_0" departPos="5.10" departSpeed="0.00" departDelay="54.00" arrival="329.00" arrivalLane="n4ton1_1" arrivalPos="39.60" arrivalSpeed="13.88" duration="15.00" routeLength="93.45" waitingTime="0.00" waitingCount="0" stopTime="0.00" timeLoss="6.91" rerouteNo="0" devices="tripinfo_260" vType="DEFAULT_VEHTYPE" speedFactor="0.89" vaporized=""/>
    <tripinfo id="265" depart="320.00" departLane="n2ton4_0" departPos="5.10" departSpeed="0.00" departDelay="55.00" arrival="330.00" arrivalLane="n4ton0_0" arrivalPos="39.60" arrivalSpeed="13.74" duration="10.00" routeLength="94.90" waitingTime="0.00" waitingCount="0" stopTime="0.00" timeLoss="3.31" rerouteNo="0" devices="tripinfo_265" vType="DEFAULT_VEHTYPE" speedFactor="0.90" vaporized=""/>
    <tripinfo id="269" depart="323.00" departLane="n2ton4_0" departPos="5.10" departSpeed="0.00" departDelay="54.00" arrival="333.00" arrivalLane="n4ton0_0" arrivalPos="39.60" arrivalSpeed="14.99" duration="10.00" routeLength="94.90" waitingTime="0.00" waitingCount="0" stopTime="0.00" timeLoss="3.92" rerouteNo="0" devices="tripinfo_269" vType="DEFAULT_VEHTYPE" speedFactor="1.00" vaporized=""/>
    <tripinfo id="270" depart="326.00" departLane="n2ton4_0" departPos="5.10" departSpeed="0.00" departDelay="56.00" arrival="339.00" arrivalLane="n4ton3_0" arrivalPos="39.60" arrivalSpeed="13.43" duration="13.00" routeLength="83.13" waitingTime="0.00" waitingCount="0" stopTime="0.00" timeLoss="4.91" rerouteNo="0" devices="tripinfo_270" vType="DEFAULT_VEHTYPE" speedFactor="0.84" vaporized=""/>
    <tripinfo id="283" depart="330.00" departLane="n2ton4_0" departPos="5.10" departSpeed="0.00" departDelay="47.00" arrival="340.00" arrivalLane="n4ton0_0" arrivalPos="39.60" arrivalSpeed="15.37" duration="10.00" routeLength="94.90" waitingTime="0.00" waitingCount="0" stopTime="0.00" timeLoss="3.78" rerouteNo="0" devices="tripinfo_283" vType="DEFAULT_VEHTYPE" speedFactor="1.02" vaporized=""/>