<?xml version="1.0" encoding="UTF-8"?>

<!-- generated on Tue Apr 28 23:33:50 2020 by Eclipse SUMO GUI Version 1.5.0
<configuration xmlns:xsi="http://www.w3.org/2001/XMLSchema-instance" xsi:noNamespaceSchemaLocation="http://sumo.dlr.de/xsd/sumoConfiguration.xsd">

    <input>
        <net-file value="my_net.net.xml"/>
        <route-files value="my_route.rou.xml"/>
        <additional-files value="demo.add.xml"/>
    </input>

    <output>
        <tripinfo-output value="tripinfo.xml"/>
    </output>

    <time>
        <begin value="0"/>
        <end value="2000"/>
    </time>

    <traci_server>
        <remote-port value="59611"/>
    </traci_server>

</configuration>
-->

<tripinfos xmlns:xsi="http://www.w3.org/2001/XMLSchema-instance" xsi:noNamespaceSchemaLocation="http://sumo.dlr.de/xsd/tripinfo_file.xsd">
    <tripinfo id="8" depart="9.00" departLane="n1ton4_0" departPos="5.10" departSpeed="0.00" departDelay="1.00" arrival="20.00" arrivalLane="n4ton0_1" arrivalPos="39.60" arrivalSpeed="14.95" duration="11.00" routeLength="93.45" waitingTime="0.00" waitingCount="0" stopTime="0.00" timeLoss="4.54" rerouteNo="0" devices="tripinfo_8" vType="DEFAULT_VEHTYPE" speedFactor="1.05" vaporized=""/>
    <tripinfo id="9" depart="10.00" departLane="n1ton4_0" departPos="5.10" departSpeed="0.00" departDelay="1.00" arrival="24.00" arrivalLane="n4ton0_1" arrivalPos="39.60" arrivalSpeed="13.71" duration="14.00" routeLength="93.45" waitingTime="0.00" waitingCount="0" stopTime="0.00" timeLoss="6.20" rerouteNo="0" devices="tripinfo_9" vType="DEFAULT_VEHTYPE" speedFactor="0.89" vaporized=""/>
    <tripinfo id="10" depart="13.00" departLane="n1ton4_0" departPos="5.10" departSpeed="0.00" departDelay="3.00" arrival="27.00" arrivalLane="n4ton0_1" arrivalPos="39.60" arrivalSpeed="13.73" duration="14.00" routeLength="93.45" waitingTime="1.00" waitingCount="1" stopTime="0.00" timeLoss="6.10" rerouteNo="0" devices="tripinfo_10" vType="DEFAULT_VEHTYPE" speedFactor="0.94" vaporized=""/>
    <tripinfo id="18" depart="21.00" departLane="n1ton4_0" departPos="5.10" departSpeed="0.00" departDelay="3.00" arrival="33.00" arrivalLane="n4ton0_1" arrivalPos="39.60" arrivalSpeed="13.42" duration="12.00" routeLength="93.45" waitingTime="0.00" waitingCount="0" stopTime="0.00" timeLoss="5.18" rerouteNo="0" devices="tripinfo_18" vType="DEFAULT_VEHTYPE" speedFactor="0.99" vaporized=""/>
    <tripinfo id="6" depart="6.00" departLane="n1ton4_0" departPos="5.10" departSpeed="0.00" departDelay="0.00" arrival="49.00" arrivalLane="n4ton2_0" arrivalPos="39.60" arrivalSpeed="14.38" duration="43.00" routeLength="83.13" waitingTime="28.00" waitingCount="1" stopTime="0.00" timeLoss="37.24" rerouteNo="0" devices="tripinfo_6" vType="DEFAULT_VEHTYPE" speedFactor="1.03" vaporized=""/>
    <tripinfo id="1" depart="1.00" departLane="n3ton4_0" departPos="5.10" departSpeed="0.00" departDelay="0.00" arrival="50.00" arrivalLane="n4ton1_0" arrivalPos="39.60" arrivalSpeed="14.84" duration="49.00" routeLength="94.90" waitingTime="33.00" waitingCount="1" stopTime="0.00" timeLoss="41.93" rerouteNo="0" devices="tripinfo_1" vType="DEFAULT_VEHTYPE" speedFactor="0.94" vaporized=""/>
    <tripinfo id="12" depart="15.00" departLane="n1ton4_0" departPos="5.10" departSpeed="0.00" departDelay="3.00" arrival="52.00" arrivalLane="n4ton2_0" arrivalPos="39.60" arrivalSpeed="12.19" duration="37.00" routeLength="83.13" waitingTime="20.00" waitingCount="1" stopTime="0.00" timeLoss="29.84" rerouteNo="0" devices="tripinfo_12" vType="DEFAULT_VEHTYPE" speedFactor="0.86" vaporized=""/>
    <tripinfo id="16" depart="16.00" departLane="n3ton4_0" departPos="5.10" departSpeed="0.00" departDelay="0.00" arrival="52.00" arrivalLane="n4ton0_0" arrivalPos="39.60" arrivalSpeed="15.12" duration="36.00" routeLength="83.13" waitingTime="18.00" waitingCount="1" stopTime="0.00" timeLoss="29.40" rerouteNo="0" devices="tripinfo_16" vType="DEFAULT_VEHTYPE" speedFactor="1.05" vaporized=""/>
    <tripinfo id="15" depart="18.00" departLane="n1ton4_0" departPos="5.10" departSpeed="0.00" departDelay="3.00" arrival="54.00" arrivalLane="n4ton3_0" arrivalPos="39.60" arrivalSpeed="15.16" duration="36.00" routeLength="94.90" waitingTime="18.00" waitingCount="1" stopTime="0.00" timeLoss="30.08" rerouteNo="0" devices="tripinfo_15" vType="DEFAULT_VEHTYPE" speedFactor="1.03" vaporized=""/>
    <tripinfo id="19" depart="19.00" departLane="n3ton4_0" departPos="5.10" departSpeed="0.00" departDelay="0.00" arrival="54.00" arrivalLane="n4ton0_0" arrivalPos="39.60" arrivalSpeed="14.46" duration="35.00" routeLength="83.13" waitingTime="18.00" waitingCount="1" stopTime="0.00" timeLoss="28.54" rerouteNo="0" devices="tripinfo_19" vType="DEFAULT_VEHTYPE" speedFactor="0.93" vaporized=""/>
    <tripinfo id="20" depart="22.00" departLane="n1ton4_0" departPos="5.10" departSpeed="0.00" departDelay="2.00" arrival="56.00" arrivalLane="n4ton3_0" arrivalPos="39.60" arrivalSpeed="12.97" duration="34.00" routeLength="94.90" waitingTime="18.00" waitingCount="1" stopTime="0.00" timeLoss="27.21" rerouteNo="0" devices="tripinfo_20" vType="DEFAULT_VEHTYPE" speedFactor="0.88" vaporized=""/>
    <tripinfo id="22" depart="22.00" departLane="n3ton4_0" departPos="5.10" departSpeed="0.00" departDelay="0.00" arrival="57.00" arrivalLane="n4ton1_0" arrivalPos="39.60" arrivalSpeed="15.02" duration="35.00" routeLength="94.90" waitingTime="18.00" waitingCount="1" stopTime="0.00" timeLoss="27.77" rerouteNo="0" devices="tripinfo_22" vType="DEFAULT_VEHTYPE" speedFactor="0.94" vaporized=""/>
    <tripinfo id="32" depart="32.00" departLane="n1ton4_0" departPos="5.10" departSpeed="0.00" departDelay="0.00" arrival="58.00" arrivalLane="n4ton3_0" arrivalPos="39.60" arrivalSpeed="14.09" duration="26.00" routeLength="94.90" waitingTime="11.00" waitingCount="1" stopTime="0.00" timeLoss="18.98" rerouteNo="0" devices="tripinfo_32" vType="DEFAULT_VEHTYPE" speedFactor="0.89" vaporized=""/>
    <tripinfo id="49" depart="49.00" departLane="n3ton4_0" departPos="5.10" departSpeed="0.00" departDelay="0.00" arrival="61.00" arrivalLane="n4ton0_0" arrivalPos="39.60" arrivalSpeed="15.27" duration="12.00" routeLength="83.13" waitingTime="0.00" waitingCount="0" stopTime="0.00" timeLoss="5.60" rerouteNo="0" devices="tripinfo_49" vType="DEFAULT_VEHTYPE" speedFactor="0.97" vaporized=""/>
    <tripinfo id="35" depart="49.00" departLane="n1ton4_0" departPos="5.10" departSpeed="0.00" departDelay="14.00" arrival="62.00" arrivalLane="n4ton2_0" arrivalPos="39.60" arrivalSpeed="13.50" duration="13.00" routeLength="83.13" waitingTime="0.00" waitingCount="0" stopTime="0.00" timeLoss="5.64" rerouteNo="0" devices="tripinfo_35" vType="DEFAULT_VEHTYPE" speedFactor="0.87" vaporized=""/>
    <tripinfo id="39" depart="53.00" departLane="n1ton4_0" departPos="5.10" departSpeed="0.00" departDelay="14.00" arrival="63.00" arrivalLane="n4ton3_0" arrivalPos="39.60" arrivalSpeed="14.02" duration="10.00" routeLength="94.90" waitingTime="0.00" waitingCount="0" stopTime="0.00" timeLoss="3.57" rerouteNo="0" devices="tripinfo_39" vType="DEFAULT_VEHTYPE" speedFactor="0.93" vaporized=""/>
    <tripinfo id="53" depart="53.00" departLane="n3ton4_0" departPos="5.10" departSpeed="0.00" departDelay="0.00" arrival="65.00" arrivalLane="n4ton0_0" arrivalPos="39.60" arrivalSpeed="15.16" duration="12.00" routeLength="83.13" waitingTime="0.00" waitingCount="0" stopTime="0.00" timeLoss="5.18" rerouteNo="0" devices="tripinfo_53" vType="DEFAULT_VEHTYPE" speedFactor="1.03" vaporized=""/>
    <tripinfo id="52" depart="56.00" departLane="n1ton4_0" departPos="5.10" departSpeed="0.00" departDelay="4.00" arrival="68.00" arrivalLane="n4ton2_0" arrivalPos="39.60" arrivalSpeed="12.76" duration="12.00" routeLength="83.13" waitingTime="0.00" waitingCount="0" stopTime="0.00" timeLoss="4.86" rerouteNo="0" devices="tripinfo_52" vType="DEFAULT_VEHTYPE" speedFactor="0.90" vaporized=""/>
    <tripinfo id="61" depart="61.00" departLane="n3ton4_0" departPos="5.10" departSpeed="0.00" departDelay="0.00" arrival="72.00" arrivalLane="n4ton0_0" arrivalPos="39.60" arrivalSpeed="14.01" duration="11.00" routeLength="83.13" waitingTime="0.00" waitingCount="0" stopTime="0.00" timeLoss="5.39" rerouteNo="0" devices="tripinfo_61" vType="DEFAULT_VEHTYPE" speedFactor="1.09" vaporized=""/>
    <tripinfo id="62" depart="64.00" departLane="n3ton4_0" departPos="5.10" departSpeed="0.00" departDelay="2.00" arrival="76.00" arrivalLane="n4ton0_0" arrivalPos="39.60" arrivalSpeed="13.53" duration="12.00" routeLength="83.13" waitingTime="0.00" waitingCount="0" stopTime="0.00" timeLoss="5.87" rerouteNo="0" devices="tripinfo_62" vType="DEFAULT_VEHTYPE" speedFactor="1.00" vaporized=""/>
    <tripinfo id="67" depart="67.00" departLane="n1ton4_0" departPos="5.10" departSpeed="0.00" departDelay="0.00" arrival="77.00" arrivalLane="n4ton3_0" arrivalPos="39.60" arrivalSpeed="18.10" duration="10.00" routeLength="94.90" waitingTime="0.00" waitingCount="0" stopTime="0.00" timeLoss="4.64" rerouteNo="0" devices="tripinfo_67" vType="DEFAULT_VEHTYPE" speedFactor="1.17" vaporized=""/>
    <tripinfo id="69" depart="69.00" departLane="n3ton4_0" departPos="5.10" departSpeed="0.00" departDelay="0.00" arrival="79.00" arrivalLane="n4ton1_0" arrivalPos="39.60" arrivalSpeed="17.38" duration="10.00" routeLength="94.90" waitingTime="0.00" waitingCount="0" stopTime="0.00" timeLoss="3.86" rerouteNo="0" devices="tripinfo_69" vType="DEFAULT_VEHTYPE" speedFactor="1.10" vaporized=""/>
    <tripinfo id="73" depart="73.00" departLane="n3ton4_0" departPos="5.10" departSpeed="0.00" departDelay="0.00" arrival="84.00" arrivalLane="n4ton1_0" arrivalPos="39.60" arrivalSpeed="13.77" duration="11.00" routeLength="94.90" waitingTime="0.00" waitingCount="0" stopTime="0.00" timeLoss="3.50" rerouteNo="0" devices="tripinfo_73" vType="DEFAULT_VEHTYPE" speedFactor="0.90" vaporized=""/>
    <tripinfo id="14" depart="14.00" departLane="n0ton4_0" departPos="5.10" departSpeed="0.00" departDelay="0.00" arrival="92.00" arrivalLane="n4ton3_1" arrivalPos="39.60" arrivalSpeed="16.12" duration="78.00" routeLength="93.45" waitingTime="63.00" waitingCount="1" stopTime="0.00" timeLoss="71.40" rerouteNo="0" devices="tripinfo_14" vType="DEFAULT_VEHTYPE" speedFactor="1.09" vaporized=""/>
    <tripinfo id="27" depart="29.00" departLane="n2ton4_0" departPos="5.10" departSpeed="0.00" departDelay="2.00" arrival="92.00" arrivalLane="n4ton1_1" arrivalPos="39.60" arrivalSpeed="14.68" duration="63.00" routeLength="93.45" waitingTime="47.00" waitingCount="1" stopTime="0.00" timeLoss="56.06" rerouteNo="0" devices="tripinfo_27" vType="DEFAULT_VEHTYPE" speedFactor="1.02" vaporized=""/>
    <tripinfo id="34" depart="34.00" departLane="n0ton4_0" departPos="5.10" departSpeed="0.00" departDelay="0.00" arrival="95.00" arrivalLane="n4ton3_1" arrivalPos="39.60" arrivalSpeed="13.08" duration="61.00" routeLength="93.45" waitingTime="44.00" waitingCount="1" stopTime="0.00" timeLoss="52.39" rerouteNo="0" devices="tripinfo_34" vType="DEFAULT_VEHTYPE" speedFactor="0.83" vaporized=""/>
    <tripinfo id="37" depart="39.00" departLane="n0ton4_0" departPos="5.10" departSpeed="0.00" departDelay="2.00" arrival="97.00" arrivalLane="n4ton3_1" arrivalPos="39.60" arrivalSpeed="14.77" duration="58.00" routeLength="93.45" waitingTime="41.00" waitingCount="1" stopTime="0.00" timeLoss="50.49" rerouteNo="0" devices="tripinfo_37" vType="DEFAULT_VEHTYPE" speedFactor="0.95" vaporized=""/>
    <tripinfo id="0" depart="0.00" departLane="n2ton4_0" departPos="5.10" departSpeed="0.00" departDelay="0.00" arrival="134.00" arrivalLane="n4ton3_0" arrivalPos="39.60" arrivalSpeed="14.41" duration="134.00" routeLength="83.13" waitingTime="120.00" waitingCount="1" stopTime="0.00" timeLoss="128.09" rerouteNo="0" devices="tripinfo_0" vType="DEFAULT_VEHTYPE" speedFactor="1.06" vaporized=""/>
    <tripinfo id="2" depart="2.00" departLane="n0ton4_0" departPos="5.10" departSpeed="0.00" departDelay="0.00" arrival="134.00" arrivalLane="n4ton1_0" arrivalPos="39.60" arrivalSpeed="13.94" duration="132.00" routeLength="83.13" waitingTime="117.00" waitingCount="1" stopTime="0.00" timeLoss="125.97" rerouteNo="0" devices="tripinfo_2" vType="DEFAULT_VEHTYPE" speedFactor="1.01" vaporized=""/>
    <tripinfo id="3" depart="5.00" departLane="n0ton4_0" departPos="5.10" departSpeed="0.00" departDelay="2.00" arrival="136.00" arrivalLane="n4ton1_0" arrivalPos="39.60" arrivalSpeed="14.21" duration="131.00" routeLength="83.13" waitingTime="116.00" waitingCount="1" stopTime="0.00" timeLoss="125.50" rerouteNo="0" devices="tripinfo_3" vType="DEFAULT_VEHTYPE" speedFactor="1.08" vaporized=""/>
    <tripinfo id="7" depart="7.00" departLane="n2ton4_0" departPos="5.10" departSpeed="0.00" departDelay="0.00" arrival="137.00" arrivalLane="n4ton3_0" arrivalPos="39.60" arrivalSpeed="12.69" duration="130.00" routeLength="83.13" waitingTime="114.00" waitingCount="1" stopTime="0.00" timeLoss="122.53" rerouteNo="0" devices="tripinfo_7" vType="DEFAULT_VEHTYPE" speedFactor="0.83" vaporized=""/>
    <tripinfo id="17" depart="17.00" departLane="n0ton4_0" departPos="5.10" departSpeed="0.00" departDelay="0.00" arrival="139.00" arrivalLane="n4ton1_0" arrivalPos="39.60" arrivalSpeed="14.00" duration="122.00" routeLength="83.13" waitingTime="106.00" waitingCount="1" stopTime="0.00" timeLoss="115.63" rerouteNo="0" devices="tripinfo_17" vType="DEFAULT_VEHTYPE" speedFactor="1.12" vaporized=""/>
    <tripinfo id="23" depart="23.00" departLane="n2ton4_0" departPos="5.10" departSpeed="0.00" departDelay="0.00" arrival="140.00" arrivalLane="n4ton3_0" arrivalPos="39.60" arrivalSpeed="14.43" duration="117.00" routeLength="83.13" waitingTime="101.00" waitingCount="1" stopTime="0.00" timeLoss="110.04" rerouteNo="0" devices="tripinfo_23" vType="DEFAULT_VEHTYPE" speedFactor="0.94" vaporized=""/>
    <tripinfo id="24" depart="26.00" departLane="n2ton4_0" departPos="5.10" departSpeed="0.00" departDelay="2.00" arrival="142.00" arrivalLane="n4ton0_0" arrivalPos="39.60" arrivalSpeed="16.45" duration="116.00" routeLength="94.90" waitingTime="99.00" waitingCount="1" stopTime="0.00" timeLoss="110.54" rerouteNo="0" devices="tripinfo_24" vType="DEFAULT_VEHTYPE" speedFactor="1.16" vaporized=""/>
    <tripinfo id="36" depart="36.00" departLane="n0ton4_0" departPos="5.10" departSpeed="0.00" departDelay="0.00" arrival="142.00" arrivalLane="n4ton1_0" arrivalPos="39.60" arrivalSpeed="11.91" duration="106.00" routeLength="83.13" waitingTime="89.00" waitingCount="1" stopTime="0.00" timeLoss="99.05" rerouteNo="0" devices="tripinfo_36" vType="DEFAULT_VEHTYPE" speedFactor="0.92" vaporized=""/>
    <tripinfo id="40" depart="40.00" departLane="n0ton4_0" departPos="5.10" departSpeed="0.00" departDelay="0.00" arrival="144.00" arrivalLane="n4ton2_0" arrivalPos="39.60" arrivalSpeed="17.50" duration="104.00" routeLength="94.90" waitingTime="88.00" waitingCount="1" stopTime="0.00" timeLoss="98.22" rerouteNo="0" devices="tripinfo_40" vType="DEFAULT_VEHTYPE" speedFactor="1.18" vaporized=""/>
    <tripinfo id="29" depart="30.00" departLane="n2ton4_0" departPos="5.10" departSpeed="0.00" departDelay="1.00" arrival="145.00" arrivalLane="n4ton3_0" arrivalPos="39.60" arrivalSpeed="12.29" duration="115.00" routeLength="83.13" waitingTime="99.00" waitingCount="1" stopTime="0.00" timeLoss="108.48" rerouteNo="0" devices="tripinfo_29" vType="DEFAULT_VEHTYPE" speedFactor="1.01" vaporized=""/>
    <tripinfo id="42" depart="133.00" departLane="n0ton4_0" departPos="5.10" departSpeed="0.00" departDelay="91.00" arrival="145.00" arrivalLane="n4ton2_0" arrivalPos="39.60" arrivalSpeed="17.65" duration="12.00" routeLength="94.90" waitingTime="1.00" waitingCount="1" stopTime="0.00" timeLoss="6.59" rerouteNo="0" devices="tripinfo_42" vType="DEFAULT_VEHTYPE" speedFactor="1.15" vaporized=""/>
    <tripinfo id="30" depart="134.00" departLane="n2ton4_0" departPos="5.10" departSpeed="0.00" departDelay="104.00" arrival="147.00" arrivalLane="n4ton0_0" arrivalPos="39.60" arrivalSpeed="15.51" duration="13.00" routeLength="94.90" waitingTime="0.00" waitingCount="0" stopTime="0.00" timeLoss="6.09" rerouteNo="0" devices="tripinfo_30" vType="DEFAULT_VEHTYPE" speedFactor="0.98" vaporized=""/>
    <tripinfo id="38" depart="137.00" departLane="n2ton4_0" departPos="5.10" departSpeed="0.00" departDelay="99.00" arrival="149.00" arrivalLane="n4ton0_0" arrivalPos="39.60" arrivalSpeed="16.90" duration="12.00" routeLength="94.90" waitingTime="0.00" waitingCount="0" stopTime="0.00" timeLoss="5.95" rerouteNo="0" devices="tripinfo_38" vType="DEFAULT_VEHTYPE" speedFactor="1.13" vaporized=""/>
    <tripinfo id="44" depart="140.00" departLane="n2ton4_0" departPos="5.10" departSpeed="0.00" departDelay="96.00" arrival="150.00" arrivalLane="n4ton0_0" arrivalPos="39.60" arrivalSpeed="14.98" duration="10.00" routeLength="94.90" waitingTime="0.00" waitingCount="0" stopTime="0.00" timeLoss="3.96" rerouteNo="0" devices="tripinfo_44" vType="DEFAULT_VEHTYPE" speedFactor="1.01" vaporized=""/>
    <tripinfo id="48" depart="138.00" departLane="n0ton4_0" departPos="5.10" departSpeed="0.00" departDelay="90.00" arrival="150.00" arrivalLane="n4ton1_0" arrivalPos="39.60" arrivalSpeed="13.65" duration="12.00" routeLength="83.13" waitingTime="0.00" waitingCount="0" stopTime="0.00" timeLoss="5.98" rerouteNo="0" devices="tripinfo_48" vType="DEFAULT_VEHTYPE" speedFactor="1.02" vaporized=""/>
    <tripinfo id="51" depart="141.00" departLane="n0ton4_0" departPos="5.10" departSpeed="0.00" departDelay="90.00" arrival="151.00" arrivalLane="n4ton2_0" arrivalPos="39.60" arrivalSpeed="17.20" duration="10.00" routeLength="94.90" waitingTime="0.00" waitingCount="0" stopTime="0.00" timeLoss="4.41" rerouteNo="0" devices="tripinfo_51" vType="DEFAULT_VEHTYPE" speedFactor="1.10" vaporized=""/>
    <tripinfo id="45" depart="143.00" departLane="n2ton4_0" departPos="5.10" departSpeed="0.00" departDelay="98.00" arrival="153.00" arrivalLane="n4ton0_0" arrivalPos="39.60" arrivalSpeed="18.74" duration="10.00" routeLength="94.90" waitingTime="0.00" waitingCount="0" stopTime="0.00" timeLoss="4.52" rerouteNo="0" devices="tripinfo_45" vType="DEFAULT_VEHTYPE" speedFactor="1.17" vaporized=""/>
    <tripinfo id="54" depart="144.00" departLane="n0ton4_0" departPos="5.10" departSpeed="0.00" departDelay="90.00" arrival="154.00" arrivalLane="n4ton2_0" arrivalPos="39.60" arrivalSpeed="14.37" duration="10.00" routeLength="94.90" waitingTime="0.00" waitingCount="0" stopTime="0.00" timeLoss="3.08" rerouteNo="0" devices="tripinfo_54" vType="DEFAULT_VEHTYPE" speedFactor="0.96" vaporized=""/>
    <tripinfo id="55" depart="147.00" departLane="n0ton4_0" departPos="5.10" departSpeed="0.00" departDelay="92.00" arrival="156.00" arrivalLane="n4ton2_0" arrivalPos="39.60" arrivalSpeed="16.97" duration="9.00" routeLength="94.90" waitingTime="0.00" waitingCount="0" stopTime="0.00" timeLoss="3.56" rerouteNo="0" devices="tripinfo_55" vType="DEFAULT_VEHTYPE" speedFactor="1.09" vaporized=""/>
    <tripinfo id="50" depart="146.00" departLane="n2ton4_0" departPos="5.10" departSpeed="0.00" departDelay="96.00" arrival="157.00" arrivalLane="n4ton3_0" arrivalPos="39.60" arrivalSpeed="13.27" duration="11.00" routeLength="83.13" waitingTime="0.00" waitingCount="0" stopTime="0.00" timeLoss="5.45" rerouteNo="0" devices="tripinfo_50" vType="DEFAULT_VEHTYPE" speedFactor="1.18" vaporized=""/>
    <tripinfo id="56" depart="149.00" departLane="n2ton4_0" departPos="5.10" departSpeed="0.00" departDelay="93.00" arrival="161.00" arrivalLane="n4ton3_0" arrivalPos="39.60" arrivalSpeed="13.71" duration="12.00" routeLength="83.13" waitingTime="0.00" waitingCount="0" stopTime="0.00" timeLoss="5.37" rerouteNo="0" devices="tripinfo_56" vType="DEFAULT_VEHTYPE" speedFactor="1.04" vaporized=""/>
    <tripinfo id="58" depart="150.00" departLane="n0ton4_0" departPos="5.10" departSpeed="0.00" departDelay="92.00" arrival="162.00" arrivalLane="n4ton1_0" arrivalPos="39.60" arrivalSpeed="14.20" duration="12.00" routeLength="83.13" waitingTime="0.00" waitingCount="0" stopTime="0.00" timeLoss="5.39" rerouteNo="0" devices="tripinfo_58" vType="DEFAULT_VEHTYPE" speedFactor="1.04" vaporized=""/>
    <tripinfo id="64" depart="152.00" departLane="n2ton4_0" departPos="5.10" departSpeed="0.00" departDelay="88.00" arrival="162.00" arrivalLane="n4ton0_0" arrivalPos="39.60" arrivalSpeed="13.41" duration="10.00" routeLength="94.90" waitingTime="0.00" waitingCount="0" stopTime="0.00" timeLoss="3.23" rerouteNo="0" devices="tripinfo_64" vType="DEFAULT_VEHTYPE" speedFactor="0.88" vaporized=""/>
    <tripinfo id="63" depart="153.00" departLane="n0ton4_0" departPos="5.10" departSpeed="0.00" departDelay="90.00" arrival="164.00" arrivalLane="n4ton2_0" arrivalPos="39.60" arrivalSpeed="14.34" duration="11.00" routeLength="94.90" waitingTime="0.00" waitingCount="0" stopTime="0.00" timeLoss="3.56" rerouteNo="0" devices="tripinfo_63" vType="DEFAULT_VEHTYPE" speedFactor="0.90" vaporized=""/>
    <tripinfo id="72" depart="156.00" departLane="n2ton4_0" departPos="5.10" departSpeed="0.00" departDelay="84.00" arrival="166.00" arrivalLane="n4ton0_0" arrivalPos="39.60" arrivalSpeed="14.82" duration="10.00" routeLength="94.90" waitingTime="0.00" waitingCount="0" stopTime="0.00" timeLoss="4.03" rerouteNo="0" devices="tripinfo_72" vType="DEFAULT_VEHTYPE" speedFactor="1.00" vaporized=""/>
    <tripinfo id="65" depart="156.00" departLane="n0ton4_0" departPos="5.10" departSpeed="0.00" departDelay="91.00" arrival="167.00" arrivalLane="n4ton2_0" arrivalPos="39.60" arrivalSpeed="13.46" duration="11.00" routeLength="94.90" waitingTime="0.00" waitingCount="0" stopTime="0.00" timeLoss="3.15" rerouteNo="0" devices="tripinfo_65" vType="DEFAULT_VEHTYPE" speedFactor="0.85" vaporized=""/>
    <tripinfo id="77" depart="159.00" departLane="n2ton4_0" departPos="5.10" departSpeed="0.00" departDelay="82.00" arrival="170.00" arrivalLane="n4ton3_0" arrivalPos="39.60" arrivalSpeed="15.02" duration="11.00" routeLength="83.13" waitingTime="0.00" waitingCount="0" stopTime="0.00" timeLoss="5.28" rerouteNo="0" devices="tripinfo_77" vType="DEFAULT_VEHTYPE" speedFactor="1.14" vaporized=""/>
    <tripinfo id="85" depart="160.00" departLane="n0ton4_0" departPos="5.10" departSpeed="0.00" departDelay="75.00" arrival="170.00" arrivalLane="n4ton2_0" arrivalPos="39.60" arrivalSpeed="14.98" duration="10.00" routeLength="94.90" waitingTime="0.00" waitingCount="0" stopTime="0.00" timeLoss="3.48" rerouteNo="0" devices="tripinfo_85" vType="DEFAULT_VEHTYPE" speedFactor="0.94" vaporized=""/>
    <tripinfo id="92" depart="163.00" departLane="n0ton4_0" departPos="5.10" departSpeed="0.00" departDelay="71.00" arrival="173.00" arrivalLane="n4ton2_0" arrivalPos="39.60" arrivalSpeed="16.05" duration="10.00" routeLength="94.90" waitingTime="0.00" waitingCount="0" stopTime="0.00" timeLoss="3.84" rerouteNo="0" devices="tripinfo_92" vType="DEFAULT_VEHTYPE" speedFactor="1.02" vaporized=""/>
    <tripinfo id="86" depart="162.00" departLane="n2ton4_0" departPos="5.10" departSpeed="0.00" departDelay="76.00" arrival="175.00" arrivalLane="n4ton3_0" arrivalPos="39.60" arrivalSpeed="13.62" duration="13.00" routeLength="83.13" waitingTime="0.00" waitingCount="0" stopTime="0.00" timeLoss="5.20" rerouteNo="0" devices="tripinfo_86" vType="DEFAULT_VEHTYPE" speedFactor="0.88" vaporized=""/>
    <tripinfo id="68" depart="70.00" departLane="n1ton4_0" departPos="5.10" departSpeed="0.00" departDelay="2.00" arrival="177.00" arrivalLane="n4ton0_1" arrivalPos="39.60" arrivalSpeed="15.13" duration="107.00" routeLength="93.45" waitingTime="90.00" waitingCount="1" stopTime="0.00" timeLoss="100.06" rerouteNo="0" devices="tripinfo_68" vType="DEFAULT_VEHTYPE" speedFactor="1.02" vaporized=""/>
    <tripinfo id="78" depart="78.00" departLane="n3ton4_0" departPos="5.10" departSpeed="0.00" departDelay="0.00" arrival="177.00" arrivalLane="n4ton2_1" arrivalPos="39.60" arrivalSpeed="15.67" duration="99.00" routeLength="93.45" waitingTime="84.00" waitingCount="1" stopTime="0.00" timeLoss="91.72" rerouteNo="0" devices="tripinfo_78" vType="DEFAULT_VEHTYPE" speedFactor="1.02" vaporized=""/>
    <tripinfo id="79" depart="79.00" departLane="n1ton4_0" departPos="5.10" departSpeed="0.00" departDelay="0.00" arrival="179.00" arrivalLane="n4ton0_1" arrivalPos="39.60" arrivalSpeed="14.25" duration="100.00" routeLength="93.45" waitingTime="83.00" waitingCount="1" stopTime="0.00" timeLoss="92.96" rerouteNo="0" devices="tripinfo_79" vType="DEFAULT_VEHTYPE" speedFactor="0.97" vaporized=""/>
    <tripinfo id="80" depart="80.00" departLane="n3ton4_0" departPos="5.10" departSpeed="0.00" departDelay="0.00" arrival="179.00" arrivalLane="n4ton2_1" arrivalPos="39.60" arrivalSpeed="16.14" duration="99.00" routeLength="93.45" waitingTime="82.00" waitingCount="1" stopTime="0.00" timeLoss="91.95" rerouteNo="0" devices="tripinfo_80" vType="DEFAULT_VEHTYPE" speedFactor="1.08" vaporized=""/>
    <tripinfo id="83" depart="88.00" departLane="n3ton4_0" departPos="5.10" departSpeed="0.00" departDelay="5.00" arrival="181.00" arrivalLane="n4ton2_1" arrivalPos="39.60" arrivalSpeed="14.54" duration="93.00" routeLength="93.45" waitingTime="76.00" waitingCount="1" stopTime="0.00" timeLoss="85.93" rerouteNo="0" devices="tripinfo_83" vType="DEFAULT_VEHTYPE" speedFactor="0.99" vaporized=""/>
    <tripinfo id="91" depart="94.00" departLane="n1ton4_0" departPos="5.10" departSpeed="0.00" departDelay="3.00" arrival="181.00" arrivalLane="n4ton0_1" arrivalPos="39.60" arrivalSpeed="14.47" duration="87.00" routeLength="93.45" waitingTime="71.00" waitingCount="1" stopTime="0.00" timeLoss="80.51" rerouteNo="0" devices="tripinfo_91" vType="DEFAULT_VEHTYPE" speedFactor="1.02" vaporized=""/>
    <tripinfo id="93" depart="95.00" departLane="n1ton4_0" departPos="5.10" departSpeed="0.00" departDelay="2.00" arrival="184.00" arrivalLane="n4ton0_1" arrivalPos="39.60" arrivalSpeed="14.66" duration="89.00" routeLength="93.45" waitingTime="71.00" waitingCount="1" stopTime="0.00" timeLoss="81.55" rerouteNo="0" devices="tripinfo_93" vType="DEFAULT_VEHTYPE" speedFactor="0.97" vaporized=""/>
    <tripinfo id="94" depart="98.00" departLane="n1ton4_0" departPos="5.10" departSpeed="0.00" departDelay="4.00" arrival="191.00" arrivalLane="n4ton0_1" arrivalPos="39.60" arrivalSpeed="14.60" duration="93.00" routeLength="93.45" waitingTime="73.00" waitingCount="3" stopTime="0.00" timeLoss="85.26" rerouteNo="0" devices="tripinfo_94" vType="DEFAULT_VEHTYPE" speedFactor="0.94" vaporized=""/>
    <tripinfo id="101" depart="101.00" departLane="n1ton4_0" departPos="5.10" departSpeed="0.00" departDelay="0.00" arrival="194.00" arrivalLane="n4ton0_1" arrivalPos="39.60" arrivalSpeed="14.66" duration="93.00" routeLength="93.45" waitingTime="74.00" waitingCount="2" stopTime="0.00" timeLoss="85.48" rerouteNo="0" devices="tripinfo_101" vType="DEFAULT_VEHTYPE" speedFactor="0.98" vaporized=""/>
    <tripinfo id="81" depart="82.00" departLane="n3ton4_0" departPos="5.10" departSpeed="0.00" departDelay="1.00" arrival="219.00" arrivalLane="n4ton0_0" arrivalPos="39.60" arrivalSpeed="13.00" duration="137.00" routeLength="83.13" waitingTime="123.00" waitingCount="1" stopTime="0.00" timeLoss="131.82" rerouteNo="0" devices="tripinfo_81" vType="DEFAULT_VEHTYPE" speedFactor="1.12" vaporized=""/>
    <tripinfo id="88" depart="88.00" departLane="n1ton4_0" departPos="5.10" departSpeed="0.00" departDelay="0.00" arrival="219.00" arrivalLane="n4ton2_0" arrivalPos="39.60" arrivalSpeed="12.90" duration="131.00" routeLength="83.13" waitingTime="116.00" waitingCount="1" stopTime="0.00" timeLoss="124.40" rerouteNo="0" devices="tripinfo_88" vType="DEFAULT_VEHTYPE" speedFactor="0.91" vaporized=""/>
    <tripinfo id="90" depart="91.00" departLane="n1ton4_0" departPos="5.10" departSpeed="0.00" departDelay="1.00" arrival="221.00" arrivalLane="n4ton2_0" arrivalPos="39.60" arrivalSpeed="15.28" duration="130.00" routeLength="83.13" waitingTime="115.00" waitingCount="1" stopTime="0.00" timeLoss="124.08" rerouteNo="0" devices="tripinfo_90" vType="DEFAULT_VEHTYPE" speedFactor="1.04" vaporized=""/>
    <tripinfo id="82" depart="85.00" departLane="n3ton4_0" departPos="5.10" departSpeed="0.00" departDelay="3.00" arrival="222.00" arrivalLane="n4ton0_0" arrivalPos="39.60" arrivalSpeed="12.98" duration="137.00" routeLength="83.13" waitingTime="120.00" waitingCount="1" stopTime="0.00" timeLoss="130.61" rerouteNo="0" devices="tripinfo_82" vType="DEFAULT_VEHTYPE" speedFactor="1.02" vaporized=""/>
    <tripinfo id="111" depart="111.00" departLane="n1ton4_0" departPos="5.10" departSpeed="0.00" departDelay="0.00" arrival="224.00" arrivalLane="n4ton3_0" arrivalPos="39.60" arrivalSpeed="17.70" duration="113.00" routeLength="94.90" waitingTime="92.00" waitingCount="3" stopTime="0.00" timeLoss="106.94" rerouteNo="0" devices="tripinfo_111" vType="DEFAULT_VEHTYPE" speedFactor="1.15" vaporized=""/>
    <tripinfo id="87" depart="89.00" departLane="n3ton4_0" departPos="5.10" departSpeed="0.00" departDelay="2.00" arrival="225.00" arrivalLane="n4ton0_0" arrivalPos="39.60" arrivalSpeed="13.71" duration="136.00" routeLength="83.13" waitingTime="118.00" waitingCount="1" stopTime="0.00" timeLoss="128.81" rerouteNo="0" devices="tripinfo_87" vType="DEFAULT_VEHTYPE" speedFactor="0.91" vaporized=""/>
    <tripinfo id="112" depart="178.00" departLane="n1ton4_0" departPos="5.10" departSpeed="0.00" departDelay="66.00" arrival="225.00" arrivalLane="n4ton3_0" arrivalPos="39.60" arrivalSpeed="14.77" duration="47.00" routeLength="94.90" waitingTime="27.00" waitingCount="2" stopTime="0.00" timeLoss="40.87" rerouteNo="0" devices="tripinfo_112" vType="DEFAULT_VEHTYPE" speedFactor="0.98" vaporized=""/>