<?xml version="1.0" encoding="UTF-8"?>

<!-- generated on Tue Apr 28 23:42:54 2020 by Eclipse SUMO GUI Version 1.5.0
<configuration xmlns:xsi="http://www.w3.org/2001/XMLSchema-instance" xsi:noNamespaceSchemaLocation="http://sumo.dlr.de/xsd/sumoConfiguration.xsd">

    <input>
        <net-file value="my_net.net.xml"/>
        <route-files value="my_route.rou.xml"/>
        <additional-files value="demo.add.xml"/>
    </input>

    <output>
        <tripinfo-output value="tripinfo.xml"/>
    </output>

    <time>
        <begin value="0"/>
        <end value="2000"/>
    </time>

    <traci_server>
        <remote-port value="59716"/>
    </traci_server>

</configuration>
-->

<tripinfos xmlns:xsi="http://www.w3.org/2001/XMLSchema-instance" xsi:noNamespaceSchemaLocation="http://sumo.dlr.de/xsd/tripinfo_file.xsd">
    <tripinfo id="2" depart="2.00" departLane="n3ton4_0" departPos="5.10" departSpeed="0.00" departDelay="0.00" arrival="12.00" arrivalLane="n4ton1_0" arrivalPos="39.60" arrivalSpeed="14.84" duration="10.00" routeLength="94.90" waitingTime="0.00" waitingCount="0" stopTime="0.00" timeLoss="3.18" rerouteNo="0" devices="tripinfo_2" vType="DEFAULT_VEHTYPE" speedFactor="0.94" vaporized=""/>
    <tripinfo id="5" depart="5.00" departLane="n1ton4_0" departPos="5.10" departSpeed="0.00" departDelay="0.00" arrival="17.00" arrivalLane="n4ton2_0" arrivalPos="39.60" arrivalSpeed="14.78" duration="12.00" routeLength="83.13" waitingTime="0.00" waitingCount="0" stopTime="0.00" timeLoss="5.88" rerouteNo="0" devices="tripinfo_5" vType="DEFAULT_VEHTYPE" speedFactor="1.01" vaporized=""/>
    <tripinfo id="12" depart="12.00" departLane="n3ton4_0" departPos="5.10" departSpeed="0.00" departDelay="0.00" arrival="22.00" arrivalLane="n4ton1_0" arrivalPos="39.60" arrivalSpeed="15.92" duration="10.00" routeLength="94.90" waitingTime="0.00" waitingCount="0" stopTime="0.00" timeLoss="4.17" rerouteNo="0" devices="tripinfo_12" vType="DEFAULT_VEHTYPE" speedFactor="1.05" vaporized=""/>
    <tripinfo id="17" depart="17.00" departLane="n3ton4_0" departPos="5.10" departSpeed="0.00" departDelay="0.00" arrival="29.00" arrivalLane="n4ton0_0" arrivalPos="39.60" arrivalSpeed="14.95" duration="12.00" routeLength="83.13" waitingTime="0.00" waitingCount="0" stopTime="0.00" timeLoss="5.40" rerouteNo="0" devices="tripinfo_17" vType="DEFAULT_VEHTYPE" speedFactor="1.03" vaporized=""/>
    <tripinfo id="18" depart="18.00" departLane="n1ton4_0" departPos="5.10" departSpeed="0.00" departDelay="0.00" arrival="30.00" arrivalLane="n4ton2_0" arrivalPos="39.60" arrivalSpeed="13.14" duration="12.00" routeLength="83.13" waitingTime="0.00" waitingCount="0" stopTime="0.00" timeLoss="6.16" rerouteNo="0" devices="tripinfo_18" vType="DEFAULT_VEHTYPE" speedFactor="1.05" vaporized=""/>
    <tripinfo id="19" depart="20.00" departLane="n3ton4_0" departPos="5.10" departSpeed="0.00" departDelay="1.00" arrival="31.00" arrivalLane="n4ton0_0" arrivalPos="39.60" arrivalSpeed="13.43" duration="11.00" routeLength="83.13" waitingTime="0.00" waitingCount="0" stopTime="0.00" timeLoss="5.19" rerouteNo="0" devices="tripinfo_19" vType="DEFAULT_VEHTYPE" speedFactor="1.12" vaporized=""/>
    <tripinfo id="21" depart="24.00" departLane="n3ton4_0" departPos="5.10" departSpeed="0.00" departDelay="3.00" arrival="35.00" arrivalLane="n4ton1_0" arrivalPos="39.60" arrivalSpeed="13.82" duration="11.00" routeLength="94.90" waitingTime="0.00" waitingCount="0" stopTime="0.00" timeLoss="3.92" rerouteNo="0" devices="tripinfo_21" vType="DEFAULT_VEHTYPE" speedFactor="0.93" vaporized=""/>
    <tripinfo id="27" depart="27.00" departLane="n1ton4_0" departPos="5.10" departSpeed="0.00" departDelay="0.00" arrival="38.00" arrivalLane="n4ton2_0" arrivalPos="39.60" arrivalSpeed="14.46" duration="11.00" routeLength="83.13" waitingTime="0.00" waitingCount="0" stopTime="0.00" timeLoss="5.07" rerouteNo="0" devices="tripinfo_27" vType="DEFAULT_VEHTYPE" speedFactor="1.02" vaporized=""/>
    <tripinfo id="28" depart="30.00" departLane="n1ton4_0" departPos="5.10" departSpeed="0.00" departDelay="2.00" arrival="42.00" arrivalLane="n4ton2_0" arrivalPos="39.60" arrivalSpeed="13.15" duration="12.00" routeLength="83.13" waitingTime="0.00" waitingCount="0" stopTime="0.00" timeLoss="6.00" rerouteNo="0" devices="tripinfo_28" vType="DEFAULT_VEHTYPE" speedFactor="1.01" vaporized=""/>
    <tripinfo id="31" depart="33.00" departLane="n1ton4_0" departPos="5.10" departSpeed="0.00" departDelay="2.00" arrival="46.00" arrivalLane="n4ton2_0" arrivalPos="39.60" arrivalSpeed="13.18" duration="13.00" routeLength="83.13" waitingTime="0.00" waitingCount="0" stopTime="0.00" timeLoss="5.11" rerouteNo="0" devices="tripinfo_31" vType="DEFAULT_VEHTYPE" speedFactor="0.83" vaporized=""/>
    <tripinfo id="34" depart="34.00" departLane="n3ton4_0" departPos="5.10" departSpeed="0.00" departDelay="0.00" arrival="46.00" arrivalLane="n4ton0_0" arrivalPos="39.60" arrivalSpeed="14.41" duration="12.00" routeLength="83.13" waitingTime="0.00" waitingCount="0" stopTime="0.00" timeLoss="5.48" rerouteNo="0" devices="tripinfo_34" vType="DEFAULT_VEHTYPE" speedFactor="0.92" vaporized=""/>
    <tripinfo id="39" depart="39.00" departLane="n3ton4_0" departPos="5.10" departSpeed="0.00" departDelay="0.00" arrival="51.00" arrivalLane="n4ton0_0" arrivalPos="39.60" arrivalSpeed="14.50" duration="12.00" routeLength="83.13" waitingTime="0.00" waitingCount="0" stopTime="0.00" timeLoss="5.52" rerouteNo="0" devices="tripinfo_39" vType="DEFAULT_VEHTYPE" speedFactor="0.93" vaporized=""/>
    <tripinfo id="0" depart="0.00" departLane="n2ton4_0" departPos="5.10" departSpeed="0.00" departDelay="0.00" arrival="55.00" arrivalLane="n4ton1_1" arrivalPos="39.60" arrivalSpeed="14.70" duration="55.00" routeLength="93.45" waitingTime="40.00" waitingCount="1" stopTime="0.00" timeLoss="48.44" rerouteNo="0" devices="tripinfo_0" vType="DEFAULT_VEHTYPE" speedFactor="1.06" vaporized=""/>
    <tripinfo id="22" depart="22.00" departLane="n2ton4_0" departPos="5.10" departSpeed="0.00" departDelay="0.00" arrival="58.00" arrivalLane="n4ton1_1" arrivalPos="39.60" arrivalSpeed="13.32" duration="36.00" routeLength="93.45" waitingTime="20.00" waitingCount="1" stopTime="0.00" timeLoss="27.63" rerouteNo="0" devices="tripinfo_22" vType="DEFAULT_VEHTYPE" speedFactor="0.88" vaporized=""/>
    <tripinfo id="33" depart="33.00" departLane="n0ton4_0" departPos="5.10" departSpeed="0.00" departDelay="0.00" arrival="64.00" arrivalLane="n4ton1_0" arrivalPos="39.60" arrivalSpeed="13.35" duration="31.00" routeLength="83.13" waitingTime="16.00" waitingCount="1" stopTime="0.00" timeLoss="24.04" rerouteNo="0" devices="tripinfo_33" vType="DEFAULT_VEHTYPE" speedFactor="0.87" vaporized=""/>
    <tripinfo id="43" depart="43.00" departLane="n0ton4_0" departPos="5.10" departSpeed="0.00" departDelay="0.00" arrival="66.00" arrivalLane="n4ton2_0" arrivalPos="39.60" arrivalSpeed="16.26" duration="23.00" routeLength="94.90" waitingTime="8.00" waitingCount="1" stopTime="0.00" timeLoss="17.66" rerouteNo="0" devices="tripinfo_43" vType="DEFAULT_VEHTYPE" speedFactor="1.15" vaporized=""/>
    <tripinfo id="13" depart="13.00" departLane="n1ton4_0" departPos="5.10" departSpeed="0.00" departDelay="0.00" arrival="67.00" arrivalLane="n4ton3_0" arrivalPos="39.60" arrivalSpeed="0.30" duration="54.00" routeLength="94.90" waitingTime="0.00" waitingCount="0" stopTime="0.00" timeLoss="47.31" rerouteNo="0" devices="tripinfo_13" vType="DEFAULT_VEHTYPE" speedFactor="0.89" vaporized=""/>
    <tripinfo id="11" depart="11.00" departLane="n0ton4_0" departPos="5.10" departSpeed="0.00" departDelay="0.00" arrival="70.00" arrivalLane="n4ton3_0" arrivalPos="39.60" arrivalSpeed="4.83" duration="59.00" routeLength="93.45" waitingTime="29.00" waitingCount="1" stopTime="0.00" timeLoss="50.78" rerouteNo="0" devices="tripinfo_11" vType="DEFAULT_VEHTYPE" speedFactor="0.83" vaporized=""/>
    <tripinfo id="53" depart="53.00" departLane="n0ton4_0" departPos="5.10" departSpeed="0.00" departDelay="0.00" arrival="72.00" arrivalLane="n4ton3_0" arrivalPos="39.60" arrivalSpeed="6.79" duration="19.00" routeLength="93.45" waitingTime="0.00" waitingCount="0" stopTime="0.00" timeLoss="11.69" rerouteNo="0" devices="tripinfo_53" vType="DEFAULT_VEHTYPE" speedFactor="0.90" vaporized=""/>
    <tripinfo id="64" depart="64.00" departLane="n0ton4_0" departPos="5.10" departSpeed="0.00" departDelay="0.00" arrival="74.00" arrivalLane="n4ton2_0" arrivalPos="39.60" arrivalSpeed="13.46" duration="10.00" routeLength="94.90" waitingTime="0.00" waitingCount="0" stopTime="0.00" timeLoss="3.26" rerouteNo="0" devices="tripinfo_64" vType="DEFAULT_VEHTYPE" speedFactor="0.90" vaporized=""/>
    <tripinfo id="15" depart="15.00" departLane="n2ton4_0" departPos="5.10" departSpeed="0.00" departDelay="0.00" arrival="75.00" arrivalLane="n4ton0_0" arrivalPos="39.60" arrivalSpeed="12.85" duration="60.00" routeLength="94.90" waitingTime="44.00" waitingCount="1" stopTime="0.00" timeLoss="53.01" rerouteNo="0" devices="tripinfo_15" vType="DEFAULT_VEHTYPE" speedFactor="0.86" vaporized=""/>
    <tripinfo id="16" depart="18.00" departLane="n2ton4_0" departPos="5.10" departSpeed="0.00" departDelay="2.00" arrival="86.00" arrivalLane="n4ton3_0" arrivalPos="39.60" arrivalSpeed="9.29" duration="68.00" routeLength="83.13" waitingTime="43.00" waitingCount="1" stopTime="0.00" timeLoss="62.01" rerouteNo="0" devices="tripinfo_16" vType="DEFAULT_VEHTYPE" speedFactor="1.09" vaporized=""/>
    <tripinfo id="26" depart="26.00" departLane="n2ton4_0" departPos="5.10" departSpeed="0.00" departDelay="0.00" arrival="91.00" arrivalLane="n4ton3_0" arrivalPos="39.60" arrivalSpeed="8.22" duration="65.00" routeLength="83.13" waitingTime="37.00" waitingCount="1" stopTime="0.00" timeLoss="59.58" rerouteNo="0" devices="tripinfo_26" vType="DEFAULT_VEHTYPE" speedFactor="1.16" vaporized=""/>
    <tripinfo id="29" depart="29.00" departLane="n2ton4_0" departPos="5.10" departSpeed="0.00" departDelay="0.00" arrival="96.00" arrivalLane="n4ton3_0" arrivalPos="39.60" arrivalSpeed="10.15" duration="67.00" routeLength="83.13" waitingTime="36.00" waitingCount="1" stopTime="0.00" timeLoss="60.16" rerouteNo="0" devices="tripinfo_29" vType="DEFAULT_VEHTYPE" speedFactor="0.98" vaporized=""/>
    <tripinfo id="36" depart="75.00" departLane="n2ton4_0" departPos="5.10" departSpeed="0.00" departDelay="39.00" arrival="96.00" arrivalLane="n4ton0_0" arrivalPos="39.60" arrivalSpeed="15.73" duration="21.00" routeLength="94.90" waitingTime="0.00" waitingCount="0" stopTime="0.00" timeLoss="15.43" rerouteNo="0" devices="tripinfo_36" vType="DEFAULT_VEHTYPE" speedFactor="1.13" vaporized=""/>
    <tripinfo id="47" depart="84.00" departLane="n2ton4_0" departPos="5.10" departSpeed="0.00" departDelay="37.00" arrival="107.00" arrivalLane="n4ton0_0" arrivalPos="39.60" arrivalSpeed="14.72" duration="23.00" routeLength="94.90" waitingTime="0.00" waitingCount="0" stopTime="0.00" timeLoss="17.04" rerouteNo="0" devices="tripinfo_47" vType="DEFAULT_VEHTYPE" speedFactor="0.99" vaporized=""/>
    <tripinfo id="52" depart="88.00" departLane="n2ton4_0" departPos="5.10" departSpeed="0.00" departDelay="36.00" arrival="109.00" arrivalLane="n4ton0_0" arrivalPos="39.60" arrivalSpeed="16.43" duration="21.00" routeLength="94.90" waitingTime="0.00" waitingCount="0" stopTime="0.00" timeLoss="15.44" rerouteNo="0" devices="tripinfo_52" vType="DEFAULT_VEHTYPE" speedFactor="1.10" vaporized=""/>
    <tripinfo id="7" depart="8.00" departLane="n1ton4_0" departPos="5.10" departSpeed="0.00" departDelay="1.00" arrival="115.00" arrivalLane="n4ton0_1" arrivalPos="39.60" arrivalSpeed="14.49" duration="107.00" routeLength="93.45" waitingTime="91.00" waitingCount="1" stopTime="0.00" timeLoss="99.99" rerouteNo="0" devices="tripinfo_7" vType="DEFAULT_VEHTYPE" speedFactor="1.03" vaporized=""/>
    <tripinfo id="14" depart="15.00" departLane="n3ton4_0" departPos="5.10" departSpeed="0.00" departDelay="1.00" arrival="115.00" arrivalLane="n4ton2_1" arrivalPos="39.60" arrivalSpeed="14.30" duration="100.00" routeLength="93.45" waitingTime="85.00" waitingCount="1" stopTime="0.00" timeLoss="92.32" rerouteNo="0" devices="tripinfo_14" vType="DEFAULT_VEHTYPE" speedFactor="0.94" vaporized=""/>
    <tripinfo id="24" depart="24.00" departLane="n1ton4_0" departPos="5.10" departSpeed="0.00" departDelay="0.00" arrival="117.00" arrivalLane="n4ton0_1" arrivalPos="39.60" arrivalSpeed="12.91" duration="93.00" routeLength="93.45" waitingTime="76.00" waitingCount="1" stopTime="0.00" timeLoss="85.68" rerouteNo="0" devices="tripinfo_24" vType="DEFAULT_VEHTYPE" speedFactor="0.94" vaporized=""/>
    <tripinfo id="61" depart="61.00" departLane="n3ton4_0" departPos="5.10" departSpeed="0.00" departDelay="0.00" arrival="117.00" arrivalLane="n4ton2_1" arrivalPos="39.60" arrivalSpeed="15.10" duration="56.00" routeLength="93.45" waitingTime="36.00" waitingCount="3" stopTime="0.00" timeLoss="50.03" rerouteNo="0" devices="tripinfo_61" vType="DEFAULT_VEHTYPE" speedFactor="1.09" vaporized=""/>
    <tripinfo id="35" depart="36.00" departLane="n1ton4_0" departPos="5.10" departSpeed="0.00" departDelay="1.00" arrival="119.00" arrivalLane="n4ton3_1" arrivalPos="39.60" arrivalSpeed="0.30" duration="83.00" routeLength="94.90" waitingTime="0.00" waitingCount="0" stopTime="0.00" timeLoss="76.75" rerouteNo="0" devices="tripinfo_35" vType="DEFAULT_VEHTYPE" speedFactor="0.95" vaporized=""/>
    <tripinfo id="20" depart="23.00" departLane="n3ton4_0" departPos="5.10" departSpeed="0.00" departDelay="3.00" arrival="120.00" arrivalLane="n4ton2_1" arrivalPos="39.60" arrivalSpeed="14.57" duration="97.00" routeLength="93.45" waitingTime="81.00" waitingCount="1" stopTime="0.00" timeLoss="89.77" rerouteNo="0" devices="tripinfo_20" vType="DEFAULT_VEHTYPE" speedFactor="0.99" vaporized=""/>
    <tripinfo id="50" depart="52.00" departLane="n1ton4_0" departPos="5.10" departSpeed="0.00" departDelay="2.00" arrival="120.00" arrivalLane="n4ton0_1" arrivalPos="39.60" arrivalSpeed="15.10" duration="68.00" routeLength="93.45" waitingTime="50.00" waitingCount="2" stopTime="0.00" timeLoss="60.45" rerouteNo="0" devices="tripinfo_50" vType="DEFAULT_VEHTYPE" speedFactor="0.97" vaporized=""/>
    <tripinfo id="23" depart="27.00" departLane="n3ton4_0" departPos="5.10" departSpeed="0.00" departDelay="4.00" arrival="122.00" arrivalLane="n4ton2_1" arrivalPos="39.60" arrivalSpeed="14.95" duration="95.00" routeLength="93.45" waitingTime="77.00" waitingCount="1" stopTime="0.00" timeLoss="87.32" rerouteNo="0" devices="tripinfo_23" vType="DEFAULT_VEHTYPE" speedFactor="0.94" vaporized=""/>
    <tripinfo id="40" depart="40.00" departLane="n1ton4_0" departPos="5.10" departSpeed="0.00" departDelay="0.00" arrival="122.00" arrivalLane="n4ton0_1" arrivalPos="39.60" arrivalSpeed="14.55" duration="82.00" routeLength="93.45" waitingTime="67.00" waitingCount="1" stopTime="0.00" timeLoss="75.81" rerouteNo="0" devices="tripinfo_40" vType="DEFAULT_VEHTYPE" speedFactor="1.18" vaporized=""/>
    <tripinfo id="45" depart="45.00" departLane="n1ton4_0" departPos="5.10" departSpeed="0.00" departDelay="0.00" arrival="124.00" arrivalLane="n4ton0_1" arrivalPos="39.60" arrivalSpeed="14.44" duration="79.00" routeLength="93.45" waitingTime="64.00" waitingCount="1" stopTime="0.00" timeLoss="72.36" rerouteNo="0" devices="tripinfo_45" vType="DEFAULT_VEHTYPE" speedFactor="1.01" vaporized=""/>
    <tripinfo id="60" depart="60.00" departLane="n3ton4_0" departPos="5.10" departSpeed="0.00" departDelay="0.00" arrival="124.00" arrivalLane="n4ton2_1" arrivalPos="39.60" arrivalSpeed="15.79" duration="64.00" routeLength="93.45" waitingTime="47.00" waitingCount="1" stopTime="0.00" timeLoss="57.36" rerouteNo="0" devices="tripinfo_60" vType="DEFAULT_VEHTYPE" speedFactor="1.04" vaporized=""/>
    <tripinfo id="54" depart="58.00" departLane="n1ton4_0" departPos="5.10" departSpeed="0.00" departDelay="4.00" arrival="126.00" arrivalLane="n4ton0_1" arrivalPos="39.60" arrivalSpeed="14.51" duration="68.00" routeLength="93.45" waitingTime="53.00" waitingCount="1" stopTime="0.00" timeLoss="61.53" rerouteNo="0" devices="tripinfo_54" vType="DEFAULT_VEHTYPE" speedFactor="1.03" vaporized=""/>
    <tripinfo id="58" depart="63.00" departLane="n1ton4_0" departPos="5.10" departSpeed="0.00" departDelay="5.00" arrival="128.00" arrivalLane="n4ton0_1" arrivalPos="39.60" arrivalSpeed="14.93" duration="65.00" routeLength="93.45" waitingTime="49.00" waitingCount="1" stopTime="0.00" timeLoss="58.65" rerouteNo="0" devices="tripinfo_58" vType="DEFAULT_VEHTYPE" speedFactor="1.04" vaporized=""/>
    <tripinfo id="72" depart="118.00" departLane="n1ton4_0" departPos="5.10" departSpeed="0.00" departDelay="46.00" arrival="130.00" arrivalLane="n4ton0_1" arrivalPos="39.60" arrivalSpeed="15.23" duration="12.00" routeLength="93.45" waitingTime="0.00" waitingCount="0" stopTime="0.00" timeLoss="5.81" rerouteNo="0" devices="tripinfo_72" vType="DEFAULT_VEHTYPE" speedFactor="1.10" vaporized=""/>
    <tripinfo id="82" depart="123.00" departLane="n1ton4_0" departPos="5.10" departSpeed="0.00" departDelay="41.00" arrival="135.00" arrivalLane="n4ton0_1" arrivalPos="39.60" arrivalSpeed="13.79" duration="12.00" routeLength="93.45" waitingTime="0.00" waitingCount="0" stopTime="0.00" timeLoss="4.22" rerouteNo="0" devices="tripinfo_82" vType="DEFAULT_VEHTYPE" speedFactor="0.90" vaporized=""/>
    <tripinfo id="62" depart="65.00" departLane="n3ton4_0" departPos="5.10" departSpeed="0.00" departDelay="3.00" arrival="143.00" arrivalLane="n4ton0_0" arrivalPos="39.60" arrivalSpeed="15.56" duration="78.00" routeLength="83.13" waitingTime="51.00" waitingCount="2" stopTime="0.00" timeLoss="70.94" rerouteNo="0" devices="tripinfo_62" vType="DEFAULT_VEHTYPE" speedFactor="1.00" vaporized=""/>
    <tripinfo id="67" depart="69.00" departLane="n3ton4_0" departPos="5.10" departSpeed="0.00" departDelay="2.00" arrival="146.00" arrivalLane="n4ton0_0" arrivalPos="39.60" arrivalSpeed="13.60" duration="77.00" routeLength="83.13" waitingTime="51.00" waitingCount="2" stopTime="0.00" timeLoss="68.97" rerouteNo="0" devices="tripinfo_67" vType="DEFAULT_VEHTYPE" speedFactor="0.85" vaporized=""/>
    <tripinfo id="71" depart="72.00" departLane="n3ton4_0" departPos="5.10" departSpeed="0.00" departDelay="1.00" arrival="148.00" arrivalLane="n4ton0_0" arrivalPos="39.60" arrivalSpeed="12.91" duration="76.00" routeLength="83.13" waitingTime="47.00" waitingCount="2" stopTime="0.00" timeLoss="69.74" rerouteNo="0" devices="tripinfo_71" vType="DEFAULT_VEHTYPE" speedFactor="1.02" vaporized=""/>
    <tripinfo id="89" depart="89.00" departLane="n3ton4_0" departPos="5.10" departSpeed="0.00" departDelay="0.00" arrival="151.00" arrivalLane="n4ton0_0" arrivalPos="39.60" arrivalSpeed="13.36" duration="62.00" routeLength="83.13" waitingTime="38.00" waitingCount="2" stopTime="0.00" timeLoss="55.34" rerouteNo="0" devices="tripinfo_89" vType="DEFAULT_VEHTYPE" speedFactor="0.99" vaporized=""/>
    <tripinfo id="105" depart="116.00" departLane="n3ton4_0" departPos="5.10" departSpeed="0.00" departDelay="11.00" arrival="153.00" arrivalLane="n4ton0_0" arrivalPos="39.60" arrivalSpeed="12.78" duration="37.00" routeLength="83.13" waitingTime="17.00" waitingCount="1" stopTime="0.00" timeLoss="31.25" rerouteNo="0" devices="tripinfo_105" vType="DEFAULT_VEHTYPE" speedFactor="1.06" vaporized=""/>
    <tripinfo id="116" depart="142.00" departLane="n3ton4_0" departPos="5.10" departSpeed="0.00" departDelay="26.00" arrival="155.00" arrivalLane="n4ton1_0" arrivalPos="39.60" arrivalSpeed="16.50" duration="13.00" routeLength="94.90" waitingTime="0.00" waitingCount="0" stopTime="0.00" timeLoss="6.42" rerouteNo="0" devices="tripinfo_116" vType="DEFAULT_VEHTYPE" speedFactor="1.03" vaporized=""/>
    <tripinfo id="83" depart="124.00" departLane="n1ton4_0" departPos="5.10" departSpeed="0.00" departDelay="41.00" arrival="157.00" arrivalLane="n4ton2_0" arrivalPos="39.60" arrivalSpeed="14.55" duration="33.00" routeLength="83.13" waitingTime="2.00" waitingCount="1" stopTime="0.00" timeLoss="27.48" rerouteNo="0" devices="tripinfo_83" vType="DEFAULT_VEHTYPE" speedFactor="1.14" vaporized=""/>
    <tripinfo id="117" depart="145.00" departLane="n3ton4_0" departPos="5.10" departSpeed="0.00" departDelay="28.00" arrival="158.00" arrivalLane="n4ton0_0" arrivalPos="39.60" arrivalSpeed="14.91" duration="13.00" routeLength="83.13" waitingTime="0.00" waitingCount="0" stopTime="0.00" timeLoss="6.06" rerouteNo="0" devices="tripinfo_117" vType="DEFAULT_VEHTYPE" speedFactor="1.00" vaporized=""/>
    <tripinfo id="129" depart="149.00" departLane="n3ton4_0" departPos="5.10" departSpeed="0.00" departDelay="20.00" arrival="159.00" arrivalLane="n4ton1_0" arrivalPos="39.60" arrivalSpeed="15.72" duration="10.00" routeLength="94.90" waitingTime="0.00" waitingCount="0" stopTime="0.00" timeLoss="4.17" rerouteNo="0" devices="tripinfo_129" vType="DEFAULT_VEHTYPE" speedFactor="1.02" vaporized=""/>
    <tripinfo id="132" depart="152.00" departLane="n3ton4_0" departPos="5.10" departSpeed="0.00" departDelay="20.00" arrival="163.00" arrivalLane="n4ton1_0" arrivalPos="39.60" arrivalSpeed="12.83" duration="11.00" routeLength="94.90" waitingTime="0.00" waitingCount="0" stopTime="0.00" timeLoss="3.12" rerouteNo="0" devices="tripinfo_132" vType="DEFAULT_VEHTYPE" speedFactor="0.83" vaporized=""/>
    <tripinfo id="134" depart="155.00" departLane="n3ton4_0" departPos="5.10" departSpeed="0.00" departDelay="21.00" arrival="165.00" arrivalLane="n4ton1_0" arrivalPos="39.60" arrivalSpeed="16.66" duration="10.00" routeLength="94.90" waitingTime="0.00" waitingCount="0" stopTime="0.00" timeLoss="4.32" rerouteNo="0" devices="tripinfo_134" vType="DEFAULT_VEHTYPE" speedFactor="1.09" vaporized=""/>
    <tripinfo id="100" depart="135.00" departLane="n1ton4_0" departPos="5.10" departSpeed="0.00" departDelay="35.00" arrival="168.00" arrivalLane="n4ton2_0" arrivalPos="39.60" arrivalSpeed="12.91" duration="33.00" routeLength="83.13" waitingTime="0.00" waitingCount="0" stopTime="0.00" timeLoss="26.50" rerouteNo="0" devices="tripinfo_100" vType="DEFAULT_VEHTYPE" speedFactor="1.02" vaporized=""/>
    <tripinfo id="135" depart="158.00" departLane="n3ton4_0" departPos="5.10" departSpeed="0.00" departDelay="23.00" arrival="170.00" arrivalLane="n4ton0_0" arrivalPos="39.60" arrivalSpeed="14.57" duration="12.00" routeLength="83.13" waitingTime="0.00" waitingCount="0" stopTime="0.00" timeLoss="5.97" rerouteNo="0" devices="tripinfo_135" vType="DEFAULT_VEHTYPE" speedFactor="1.06" vaporized=""/>
    <tripinfo id="138" depart="161.00" departLane="n3ton4_0" departPos="5.10" departSpeed="0.00" departDelay="23.00" arrival="173.00" arrivalLane="n4ton0_0" arrivalPos="39.60" arrivalSpeed="14.57" duration="12.00" routeLength="83.13" waitingTime="0.00" waitingCount="0" stopTime="0.00" timeLoss="5.80" rerouteNo="0" devices="tripinfo_138" vType="DEFAULT_VEHTYPE" speedFactor="1.12" vaporized=""/>
    <tripinfo id="139" depart="164.00" departLane="n3ton4_0" departPos="5.10" departSpeed="0.00" departDelay="25.00" arrival="176.00" arrivalLane="n4ton0_0" arrivalPos="39.60" arrivalSpeed="14.21" duration="12.00" routeLength="83.13" waitingTime="0.00" waitingCount="0" stopTime="0.00" timeLoss="5.48" rerouteNo="0" devices="tripinfo_139" vType="DEFAULT_VEHTYPE" speedFactor="1.10" vaporized=""/>
    <tripinfo id="151" depart="167.00" departLane="n3ton4_0" departPos="5.10" departSpeed="0.00" departDelay="16.00" arrival="179.00" arrivalLane="n4ton0_0" arrivalPos="39.60" arrivalSpeed="13.09" duration="12.00" routeLength="83.13" waitingTime="0.00" waitingCount="0" stopTime="0.00" timeLoss="6.20" rerouteNo="0" devices="tripinfo_151" vType="DEFAULT_VEHTYPE" speedFactor="1.01" vaporized=""/>
    <tripinfo id="6" depart="6.00" departLane="n2ton4_0" departPos="5.10" departSpeed="0.00" departDelay="0.00" arrival="182.00" arrivalLane="n4ton3_0" arrivalPos="39.60" arrivalSpeed="0.30" duration="176.00" routeLength="83.13" waitingTime="51.00" waitingCount="1" stopTime="0.00" timeLoss="170.62" rerouteNo="0" devices="tripinfo_6" vType="DEFAULT_VEHTYPE" speedFactor="1.08" vaporized=""/>
    <tripinfo id="158" depart="170.00" departLane="n3ton4_0" departPos="5.10" departSpeed="0.00" departDelay="12.00" arrival="182.00" arrivalLane="n4ton1_0" arrivalPos="39.60" arrivalSpeed="13.68" duration="12.00" routeLength="94.90" waitingTime="0.00" waitingCount="0" stopTime="0.00" timeLoss="4.70" rerouteNo="0" devices="tripinfo_158" vType="DEFAULT_VEHTYPE" speedFactor="0.87" vaporized=""/>
    <tripinfo id="68" depart="99.00" departLane="n2ton4_0" departPos="5.10" departSpeed="0.00" departDelay="31.00" arrival="192.00" arrivalLane="n4ton1_1" arrivalPos="39.60" arrivalSpeed="12.83" duration="93.00" routeLength="93.45" waitingTime="74.00" waitingCount="2" stopTime="0.00" timeLoss="84.81" rerouteNo="0" devices="tripinfo_68" vType="DEFAULT_VEHTYPE" speedFactor="0.85" vaporized=""/>
    <tripinfo id="98" depart="107.00" departLane="n2ton4_0" departPos="5.10" departSpeed="0.00" departDelay="9.00" arrival="194.00" arrivalLane="n4ton1_1" arrivalPos="39.60" arrivalSpeed="15.80" duration="87.00" routeLength="93.45" waitingTime="69.00" waitingCount="2" stopTime="0.00" timeLoss="79.85" rerouteNo="0" devices="tripinfo_98" vType="DEFAULT_VEHTYPE" speedFactor="1.02" vaporized=""/>
    <tripinfo id="103" depart="111.00" departLane="n2ton4_0" departPos="5.10" departSpeed="0.00" departDelay="8.00" arrival="197.00" arrivalLane="n4ton1_1" arrivalPos="39.60" arrivalSpeed="15.03" duration="86.00" routeLength="93.45" waitingTime="65.00" waitingCount="2" stopTime="0.00" timeLoss="77.73" rerouteNo="0" devices="tripinfo_103" vType="DEFAULT_VEHTYPE" speedFactor="0.94" vaporized=""/>
    <tripinfo id="85" depart="85.00" departLane="n0ton4_0" departPos="5.10" departSpeed="0.00" departDelay="0.00" arrival="203.00" arrivalLane="n4ton1_0" arrivalPos="39.60" arrivalSpeed="12.45" duration="118.00" routeLength="83.13" waitingTime="104.00" waitingCount="1" stopTime="0.00" timeLoss="112.01" rerouteNo="0" devices="tripinfo_85" vType="DEFAULT_VEHTYPE" speedFactor="0.97" vaporized=""/>
    <tripinfo id="86" depart="88.00" departLane="n0ton4_0" departPos="5.10" departSpeed="0.00" departDelay="2.00" arrival="206.00" arrivalLane="n4ton2_0" arrivalPos="39.60" arrivalSpeed="17.30" duration="118.00" routeLength="94.90" waitingTime="102.00" waitingCount="1" stopTime="0.00" timeLoss="111.70" rerouteNo="0" devices="tripinfo_86" vType="DEFAULT_VEHTYPE" speedFactor="1.08" vaporized=""/>
    <tripinfo id="90" depart="95.00" departLane="n0ton4_0" departPos="5.10" departSpeed="0.00" departDelay="5.00" arrival="208.00" arrivalLane="n4ton2_0" arrivalPos="39.60" arrivalSpeed="14.70" duration="113.00" routeLength="94.90" waitingTime="95.00" waitingCount="1" stopTime="0.00" timeLoss="105.78" rerouteNo="0" devices="tripinfo_90" vType="DEFAULT_VEHTYPE" speedFactor="0.94" vaporized=""/>
    <tripinfo id="92" depart="98.00" departLane="n0ton4_0" departPos="5.10" departSpeed="0.00" departDelay="6.00" arrival="209.00" arrivalLane="n4ton2_0" arrivalPos="39.60" arrivalSpeed="12.91" duration="111.00" routeLength="94.90" waitingTime="95.00" waitingCount="1" stopTime="0.00" timeLoss="104.27" rerouteNo="0" devices="tripinfo_92" vType="DEFAULT_VEHTYPE" speedFactor="0.88" vaporized=""/>
    <tripinfo id="30" depart="72.00" departLane="n2ton4_0" departPos="5.10" departSpeed="0.00" departDelay="42.00" arrival="211.00" arrivalLane="n4ton3_1" arrivalPos="39.60" arrivalSpeed="0.30" duration="139.00" routeLength="83.13" waitingTime="0.00" waitingCount="0" stopTime="0.00" timeLoss="132.48" rerouteNo="0" devices="tripinfo_30" vType="DEFAULT_VEHTYPE" speedFactor="0.89" vaporized=""/>
    <tripinfo id="94" depart="102.00" departLane="n0ton4_0" departPos="5.10" departSpeed="0.00" departDelay="8.00" arrival="212.00" arrivalLane="n4ton1_0" arrivalPos="39.60" arrivalSpeed="13.66" duration="110.00" routeLength="83.13" waitingTime="93.00" waitingCount="1" stopTime="0.00" timeLoss="103.48" rerouteNo="0" devices="tripinfo_94" vType="DEFAULT_VEHTYPE" speedFactor="0.91" vaporized=""/>
    <tripinfo id="56" depart="92.00" departLane="n2ton4_0" departPos="5.10" departSpeed="0.00" departDelay="36.00" arrival="214.00" arrivalLane="n4ton3_1" arrivalPos="39.60" arrivalSpeed="5.62" duration="122.00" routeLength="83.13" waitingTime="0.00" waitingCount="0" stopTime="0.00" timeLoss="115.31" rerouteNo="0" devices="tripinfo_56" vType="DEFAULT_VEHTYPE" speedFactor="0.96" vaporized=""/>
    <tripinfo id="96" depart="203.00" departLane="n0ton4_0" departPos="5.10" departSpeed="0.00" departDelay="107.00" arrival="215.00" arrivalLane="n4ton2_0" arrivalPos="39.60" arrivalSpeed="16.46" duration="12.00" routeLength="94.90" waitingTime="0.00" waitingCount="0" stopTime="0.00" timeLoss="5.36" rerouteNo="0" devices="tripinfo_96" vType="DEFAULT_VEHTYPE" speedFactor="1.04" vaporized=""/>
    <tripinfo id="51" depart="55.00" departLane="n1ton4_0" departPos="5.10" departSpeed="0.00" departDelay="4.00" arrival="216.00" arrivalLane="n4ton3_1" arrivalPos="39.60" arrivalSpeed="6.93" duration="161.00" routeLength="94.90" waitingTime="56.00" waitingCount="2" stopTime="0.00" timeLoss="155.94" rerouteNo="0" devices="tripinfo_51" vType="DEFAULT_VEHTYPE" speedFactor="1.18" vaporized=""/>
    <tripinfo id="111" depart="206.00" departLane="n0ton4_0" departPos="5.10" departSpeed="0.00" departDelay="95.00" arrival="216.00" arrivalLane="n4ton2_0" arrivalPos="39.60" arrivalSpeed="15.02" duration="10.00" routeLength="94.90" waitingTime="0.00" waitingCount="0" stopTime="0.00" timeLoss="3.92" rerouteNo="0" devices="tripinfo_111" vType="DEFAULT_VEHTYPE" speedFactor="0.98" vaporized=""/>