<?xml version="1.0" encoding="UTF-8"?>

<!-- generated on Wed Apr 29 01:59:56 2020 by Eclipse SUMO GUI Version 1.5.0
<configuration xmlns:xsi="http://www.w3.org/2001/XMLSchema-instance" xsi:noNamespaceSchemaLocation="http://sumo.dlr.de/xsd/sumoConfiguration.xsd">

    <input>
        <net-file value="my_net.net.xml"/>
        <route-files value="my_route.rou.xml"/>
        <additional-files value="demo.add.xml"/>
    </input>

    <output>
        <tripinfo-output value="tripinfo.xml"/>
    </output>

    <time>
        <begin value="0"/>
        <end value="2000"/>
    </time>

    <traci_server>
        <remote-port value="61496"/>
    </traci_server>

</configuration>
-->

<tripinfos xmlns:xsi="http://www.w3.org/2001/XMLSchema-instance" xsi:noNamespaceSchemaLocation="http://sumo.dlr.de/xsd/tripinfo_file.xsd">
    <tripinfo id="3" depart="3.00" departLane="n3ton4_0" departPos="5.10" departSpeed="0.00" departDelay="0.00" arrival="13.00" arrivalLane="n4ton1_0" arrivalPos="39.60" arrivalSpeed="15.02" duration="10.00" routeLength="94.90" waitingTime="0.00" waitingCount="0" stopTime="0.00" timeLoss="3.86" rerouteNo="0" devices="tripinfo_3" vType="DEFAULT_VEHTYPE" speedFactor="1.01" vaporized=""/>
    <tripinfo id="2" depart="2.00" departLane="n3ton4_0" departPos="5.10" departSpeed="0.00" departDelay="0.00" arrival="14.00" arrivalLane="n4ton2_1" arrivalPos="39.60" arrivalSpeed="13.40" duration="12.00" routeLength="93.45" waitingTime="0.00" waitingCount="0" stopTime="0.00" timeLoss="4.49" rerouteNo="0" devices="tripinfo_2" vType="DEFAULT_VEHTYPE" speedFactor="0.94" vaporized=""/>
    <tripinfo id="4" depart="6.00" departLane="n3ton4_0" departPos="5.10" departSpeed="0.00" departDelay="2.00" arrival="17.00" arrivalLane="n4ton0_0" arrivalPos="39.60" arrivalSpeed="15.51" duration="11.00" routeLength="83.13" waitingTime="0.00" waitingCount="0" stopTime="0.00" timeLoss="5.13" rerouteNo="0" devices="tripinfo_4" vType="DEFAULT_VEHTYPE" speedFactor="1.08" vaporized=""/>
    <tripinfo id="7" depart="9.00" departLane="n3ton4_0" departPos="5.10" departSpeed="0.00" departDelay="2.00" arrival="21.00" arrivalLane="n4ton2_1" arrivalPos="39.60" arrivalSpeed="12.28" duration="12.00" routeLength="93.45" waitingTime="0.00" waitingCount="0" stopTime="0.00" timeLoss="3.62" rerouteNo="0" devices="tripinfo_7" vType="DEFAULT_VEHTYPE" speedFactor="0.83" vaporized=""/>
    <tripinfo id="14" depart="14.00" departLane="n3ton4_0" departPos="5.10" departSpeed="0.00" departDelay="0.00" arrival="26.00" arrivalLane="n4ton2_1" arrivalPos="39.60" arrivalSpeed="12.96" duration="12.00" routeLength="93.45" waitingTime="0.00" waitingCount="0" stopTime="0.00" timeLoss="3.65" rerouteNo="0" devices="tripinfo_14" vType="DEFAULT_VEHTYPE" speedFactor="0.86" vaporized=""/>
    <tripinfo id="20" depart="20.00" departLane="n3ton4_0" departPos="5.10" departSpeed="0.00" departDelay="0.00" arrival="30.00" arrivalLane="n4ton1_0" arrivalPos="39.60" arrivalSpeed="15.38" duration="10.00" routeLength="94.90" waitingTime="0.00" waitingCount="0" stopTime="0.00" timeLoss="3.75" rerouteNo="0" devices="tripinfo_20" vType="DEFAULT_VEHTYPE" speedFactor="0.99" vaporized=""/>
    <tripinfo id="22" depart="23.00" departLane="n3ton4_0" departPos="5.10" departSpeed="0.00" departDelay="1.00" arrival="35.00" arrivalLane="n4ton2_1" arrivalPos="39.60" arrivalSpeed="13.64" duration="12.00" routeLength="93.45" waitingTime="0.00" waitingCount="0" stopTime="0.00" timeLoss="4.09" rerouteNo="0" devices="tripinfo_22" vType="DEFAULT_VEHTYPE" speedFactor="0.88" vaporized=""/>
    <tripinfo id="23" depart="24.00" departLane="n3ton4_0" departPos="5.10" departSpeed="0.00" departDelay="1.00" arrival="38.00" arrivalLane="n4ton2_1" arrivalPos="39.60" arrivalSpeed="14.35" duration="14.00" routeLength="93.45" waitingTime="0.00" waitingCount="0" stopTime="0.00" timeLoss="6.84" rerouteNo="0" devices="tripinfo_23" vType="DEFAULT_VEHTYPE" speedFactor="0.94" vaporized=""/>
    <tripinfo id="28" depart="28.00" departLane="n3ton4_0" departPos="5.10" departSpeed="0.00" departDelay="0.00" arrival="38.00" arrivalLane="n4ton1_0" arrivalPos="39.60" arrivalSpeed="16.12" duration="10.00" routeLength="94.90" waitingTime="0.00" waitingCount="0" stopTime="0.00" timeLoss="3.87" rerouteNo="0" devices="tripinfo_28" vType="DEFAULT_VEHTYPE" speedFactor="1.01" vaporized=""/>
    <tripinfo id="29" depart="31.00" departLane="n3ton4_0" departPos="5.10" departSpeed="0.00" departDelay="2.00" arrival="43.00" arrivalLane="n4ton2_1" arrivalPos="39.60" arrivalSpeed="13.19" duration="12.00" routeLength="93.45" waitingTime="0.00" waitingCount="0" stopTime="0.00" timeLoss="4.62" rerouteNo="0" devices="tripinfo_29" vType="DEFAULT_VEHTYPE" speedFactor="0.98" vaporized=""/>
    <tripinfo id="8" depart="8.00" departLane="n1ton4_0" departPos="5.10" departSpeed="0.00" departDelay="0.00" arrival="50.00" arrivalLane="n4ton3_0" arrivalPos="39.60" arrivalSpeed="16.23" duration="42.00" routeLength="94.90" waitingTime="25.00" waitingCount="1" stopTime="0.00" timeLoss="35.41" rerouteNo="0" devices="tripinfo_8" vType="DEFAULT_VEHTYPE" speedFactor="1.05" vaporized=""/>
    <tripinfo id="18" depart="18.00" departLane="n1ton4_0" departPos="5.10" departSpeed="0.00" departDelay="0.00" arrival="52.00" arrivalLane="n4ton2_0" arrivalPos="39.60" arrivalSpeed="15.25" duration="34.00" routeLength="83.13" waitingTime="19.00" waitingCount="1" stopTime="0.00" timeLoss="27.44" rerouteNo="0" devices="tripinfo_18" vType="DEFAULT_VEHTYPE" speedFactor="1.05" vaporized=""/>
    <tripinfo id="24" depart="24.00" departLane="n1ton4_0" departPos="5.10" departSpeed="0.00" departDelay="0.00" arrival="54.00" arrivalLane="n4ton3_0" arrivalPos="39.60" arrivalSpeed="13.69" duration="30.00" routeLength="94.90" waitingTime="13.00" waitingCount="1" stopTime="0.00" timeLoss="23.16" rerouteNo="0" devices="tripinfo_24" vType="DEFAULT_VEHTYPE" speedFactor="0.94" vaporized=""/>
    <tripinfo id="26" depart="27.00" departLane="n1ton4_0" departPos="5.10" departSpeed="0.00" departDelay="1.00" arrival="56.00" arrivalLane="n4ton3_0" arrivalPos="39.60" arrivalSpeed="15.41" duration="29.00" routeLength="94.90" waitingTime="12.00" waitingCount="1" stopTime="0.00" timeLoss="22.47" rerouteNo="0" devices="tripinfo_26" vType="DEFAULT_VEHTYPE" speedFactor="1.02" vaporized=""/>
    <tripinfo id="38" depart="38.00" departLane="n1ton4_0" departPos="5.10" departSpeed="0.00" departDelay="0.00" arrival="58.00" arrivalLane="n4ton3_0" arrivalPos="39.60" arrivalSpeed="14.02" duration="20.00" routeLength="94.90" waitingTime="5.00" waitingCount="1" stopTime="0.00" timeLoss="12.86" rerouteNo="0" devices="tripinfo_38" vType="DEFAULT_VEHTYPE" speedFactor="0.95" vaporized=""/>
    <tripinfo id="44" depart="49.00" departLane="n1ton4_0" departPos="5.10" departSpeed="0.00" departDelay="5.00" arrival="60.00" arrivalLane="n4ton2_0" arrivalPos="39.60" arrivalSpeed="14.71" duration="11.00" routeLength="83.13" waitingTime="0.00" waitingCount="0" stopTime="0.00" timeLoss="5.29" rerouteNo="0" devices="tripinfo_44" vType="DEFAULT_VEHTYPE" speedFactor="1.15" vaporized=""/>
    <tripinfo id="58" depart="58.00" departLane="n1ton4_0" departPos="5.10" departSpeed="0.00" departDelay="0.00" arrival="68.00" arrivalLane="n4ton3_0" arrivalPos="39.60" arrivalSpeed="16.08" duration="10.00" routeLength="94.90" waitingTime="0.00" waitingCount="0" stopTime="0.00" timeLoss="4.22" rerouteNo="0" devices="tripinfo_58" vType="DEFAULT_VEHTYPE" speedFactor="1.04" vaporized=""/>
    <tripinfo id="5" depart="5.00" departLane="n2ton4_0" departPos="5.10" departSpeed="0.00" departDelay="0.00" arrival="92.00" arrivalLane="n4ton1_1" arrivalPos="39.60" arrivalSpeed="14.79" duration="87.00" routeLength="93.45" waitingTime="72.00" waitingCount="1" stopTime="0.00" timeLoss="80.16" rerouteNo="0" devices="tripinfo_5" vType="DEFAULT_VEHTYPE" speedFactor="1.03" vaporized=""/>
    <tripinfo id="32" depart="33.00" departLane="n0ton4_0" departPos="5.10" departSpeed="0.00" departDelay="1.00" arrival="92.00" arrivalLane="n4ton3_1" arrivalPos="39.60" arrivalSpeed="12.57" duration="59.00" routeLength="93.45" waitingTime="43.00" waitingCount="1" stopTime="0.00" timeLoss="50.75" rerouteNo="0" devices="tripinfo_32" vType="DEFAULT_VEHTYPE" speedFactor="0.83" vaporized=""/>
    <tripinfo id="19" depart="19.00" departLane="n2ton4_0" departPos="5.10" departSpeed="0.00" departDelay="0.00" arrival="94.00" arrivalLane="n4ton1_1" arrivalPos="39.60" arrivalSpeed="15.22" duration="75.00" routeLength="93.45" waitingTime="58.00" waitingCount="1" stopTime="0.00" timeLoss="68.54" rerouteNo="0" devices="tripinfo_19" vType="DEFAULT_VEHTYPE" speedFactor="1.12" vaporized=""/>
    <tripinfo id="34" depart="34.00" departLane="n0ton4_0" departPos="5.10" departSpeed="0.00" departDelay="0.00" arrival="95.00" arrivalLane="n4ton3_1" arrivalPos="39.60" arrivalSpeed="13.83" duration="61.00" routeLength="93.45" waitingTime="43.00" waitingCount="1" stopTime="0.00" timeLoss="52.32" rerouteNo="0" devices="tripinfo_34" vType="DEFAULT_VEHTYPE" speedFactor="0.87" vaporized=""/>
    <tripinfo id="25" depart="25.00" departLane="n2ton4_0" departPos="5.10" departSpeed="0.00" departDelay="0.00" arrival="96.00" arrivalLane="n4ton1_1" arrivalPos="39.60" arrivalSpeed="17.43" duration="71.00" routeLength="93.45" waitingTime="55.00" waitingCount="1" stopTime="0.00" timeLoss="64.54" rerouteNo="0" devices="tripinfo_25" vType="DEFAULT_VEHTYPE" speedFactor="1.16" vaporized=""/>
    <tripinfo id="40" depart="40.00" departLane="n0ton4_0" departPos="5.10" departSpeed="0.00" departDelay="0.00" arrival="96.00" arrivalLane="n4ton3_1" arrivalPos="39.60" arrivalSpeed="14.69" duration="56.00" routeLength="93.45" waitingTime="40.00" waitingCount="1" stopTime="0.00" timeLoss="49.81" rerouteNo="0" devices="tripinfo_40" vType="DEFAULT_VEHTYPE" speedFactor="1.13" vaporized=""/>
    <tripinfo id="42" depart="42.00" departLane="n0ton4_0" departPos="5.10" departSpeed="0.00" departDelay="0.00" arrival="98.00" arrivalLane="n4ton3_1" arrivalPos="39.60" arrivalSpeed="13.39" duration="56.00" routeLength="93.45" waitingTime="38.00" waitingCount="1" stopTime="0.00" timeLoss="48.91" rerouteNo="0" devices="tripinfo_42" vType="DEFAULT_VEHTYPE" speedFactor="0.93" vaporized=""/>
    <tripinfo id="49" depart="49.00" departLane="n0ton4_0" departPos="5.10" departSpeed="0.00" departDelay="0.00" arrival="101.00" arrivalLane="n4ton3_1" arrivalPos="39.60" arrivalSpeed="14.86" duration="52.00" routeLength="93.45" waitingTime="35.00" waitingCount="1" stopTime="0.00" timeLoss="44.32" rerouteNo="0" devices="tripinfo_49" vType="DEFAULT_VEHTYPE" speedFactor="0.97" vaporized=""/>
    <tripinfo id="50" depart="50.00" departLane="n0ton4_0" departPos="5.10" departSpeed="0.00" departDelay="0.00" arrival="103.00" arrivalLane="n4ton3_1" arrivalPos="39.60" arrivalSpeed="17.41" duration="53.00" routeLength="93.45" waitingTime="38.00" waitingCount="1" stopTime="0.00" timeLoss="46.67" rerouteNo="0" devices="tripinfo_50" vType="DEFAULT_VEHTYPE" speedFactor="1.18" vaporized=""/>
    <tripinfo id="1" depart="1.00" departLane="n0ton4_0" departPos="5.10" departSpeed="0.00" departDelay="0.00" arrival="104.00" arrivalLane="n4ton1_0" arrivalPos="39.60" arrivalSpeed="13.30" duration="103.00" routeLength="83.13" waitingTime="87.00" waitingCount="1" stopTime="0.00" timeLoss="97.65" rerouteNo="0" devices="tripinfo_1" vType="DEFAULT_VEHTYPE" speedFactor="1.06" vaporized=""/>
    <tripinfo id="9" depart="9.00" departLane="n0ton4_0" departPos="5.10" departSpeed="0.00" departDelay="0.00" arrival="107.00" arrivalLane="n4ton1_0" arrivalPos="39.60" arrivalSpeed="13.89" duration="98.00" routeLength="83.13" waitingTime="81.00" waitingCount="1" stopTime="0.00" timeLoss="91.30" rerouteNo="0" devices="tripinfo_9" vType="DEFAULT_VEHTYPE" speedFactor="0.89" vaporized=""/>
    <tripinfo id="59" depart="91.00" departLane="n0ton4_0" departPos="5.10" departSpeed="0.00" departDelay="32.00" arrival="107.00" arrivalLane="n4ton3_1" arrivalPos="39.60" arrivalSpeed="16.06" duration="16.00" routeLength="93.45" waitingTime="1.00" waitingCount="1" stopTime="0.00" timeLoss="9.21" rerouteNo="0" devices="tripinfo_59" vType="DEFAULT_VEHTYPE" speedFactor="1.09" vaporized=""/>
    <tripinfo id="30" depart="30.00" departLane="n0ton4_0" departPos="5.10" departSpeed="0.00" departDelay="0.00" arrival="110.00" arrivalLane="n4ton2_0" arrivalPos="39.60" arrivalSpeed="13.88" duration="80.00" routeLength="94.90" waitingTime="64.00" waitingCount="1" stopTime="0.00" timeLoss="72.48" rerouteNo="0" devices="tripinfo_30" vType="DEFAULT_VEHTYPE" speedFactor="0.89" vaporized=""/>
    <tripinfo id="36" depart="37.00" departLane="n0ton4_0" departPos="5.10" departSpeed="0.00" departDelay="1.00" arrival="112.00" arrivalLane="n4ton1_0" arrivalPos="39.60" arrivalSpeed="12.94" duration="75.00" routeLength="83.13" waitingTime="59.00" waitingCount="1" stopTime="0.00" timeLoss="68.53" rerouteNo="0" devices="tripinfo_36" vType="DEFAULT_VEHTYPE" speedFactor="0.92" vaporized=""/>
    <tripinfo id="60" depart="95.00" departLane="n0ton4_0" departPos="5.10" departSpeed="0.00" departDelay="35.00" arrival="115.00" arrivalLane="n4ton1_0" arrivalPos="39.60" arrivalSpeed="14.04" duration="20.00" routeLength="83.13" waitingTime="4.00" waitingCount="1" stopTime="0.00" timeLoss="13.20" rerouteNo="0" devices="tripinfo_60" vType="DEFAULT_VEHTYPE" speedFactor="1.00" vaporized=""/>
    <tripinfo id="76" depart="104.00" departLane="n0ton4_0" departPos="5.10" departSpeed="0.00" departDelay="28.00" arrival="116.00" arrivalLane="n4ton3_1" arrivalPos="39.60" arrivalSpeed="13.47" duration="12.00" routeLength="93.45" waitingTime="0.00" waitingCount="0" stopTime="0.00" timeLoss="5.19" rerouteNo="0" devices="tripinfo_76" vType="DEFAULT_VEHTYPE" speedFactor="1.00" vaporized=""/>
    <tripinfo id="78" depart="105.00" departLane="n0ton4_0" departPos="5.10" departSpeed="0.00" departDelay="27.00" arrival="117.00" arrivalLane="n4ton2_0" arrivalPos="39.60" arrivalSpeed="13.52" duration="12.00" routeLength="94.90" waitingTime="0.00" waitingCount="0" stopTime="0.00" timeLoss="4.55" rerouteNo="0" devices="tripinfo_78" vType="DEFAULT_VEHTYPE" speedFactor="0.90" vaporized=""/>
    <tripinfo id="89" depart="108.00" departLane="n0ton4_0" departPos="5.10" departSpeed="0.00" departDelay="19.00" arrival="121.00" arrivalLane="n4ton3_1" arrivalPos="39.60" arrivalSpeed="13.76" duration="13.00" routeLength="93.45" waitingTime="0.00" waitingCount="0" stopTime="0.00" timeLoss="4.47" rerouteNo="0" devices="tripinfo_89" vType="DEFAULT_VEHTYPE" speedFactor="0.91" vaporized=""/>
    <tripinfo id="93" depart="109.00" departLane="n0ton4_0" departPos="5.10" departSpeed="0.00" departDelay="16.00" arrival="122.00" arrivalLane="n4ton3_1" arrivalPos="39.60" arrivalSpeed="14.49" duration="13.00" routeLength="93.45" waitingTime="0.00" waitingCount="0" stopTime="0.00" timeLoss="5.96" rerouteNo="0" devices="tripinfo_93" vType="DEFAULT_VEHTYPE" speedFactor="1.02" vaporized=""/>
    <tripinfo id="111" depart="112.00" departLane="n0ton4_0" departPos="5.10" departSpeed="0.00" departDelay="1.00" arrival="122.00" arrivalLane="n4ton2_0" arrivalPos="39.60" arrivalSpeed="14.50" duration="10.00" routeLength="94.90" waitingTime="0.00" waitingCount="0" stopTime="0.00" timeLoss="3.68" rerouteNo="0" devices="tripinfo_111" vType="DEFAULT_VEHTYPE" speedFactor="0.97" vaporized=""/>
    <tripinfo id="112" depart="115.00" departLane="n0ton4_0" departPos="5.10" departSpeed="0.00" departDelay="3.00" arrival="126.00" arrivalLane="n4ton1_0" arrivalPos="39.60" arrivalSpeed="13.79" duration="11.00" routeLength="83.13" waitingTime="0.00" waitingCount="0" stopTime="0.00" timeLoss="5.63" rerouteNo="0" devices="tripinfo_112" vType="DEFAULT_VEHTYPE" speedFactor="1.15" vaporized=""/>
    <tripinfo id="113" depart="118.00" departLane="n0ton4_0" departPos="5.10" departSpeed="0.00" departDelay="5.00" arrival="128.00" arrivalLane="n4ton2_0" arrivalPos="39.60" arrivalSpeed="15.19" duration="10.00" routeLength="94.90" waitingTime="0.00" waitingCount="0" stopTime="0.00" timeLoss="3.84" rerouteNo="0" devices="tripinfo_113" vType="DEFAULT_VEHTYPE" speedFactor="0.98" vaporized=""/>
    <tripinfo id="12" depart="12.00" departLane="n2ton4_0" departPos="5.10" departSpeed="0.00" departDelay="0.00" arrival="130.00" arrivalLane="n4ton0_0" arrivalPos="39.60" arrivalSpeed="14.75" duration="118.00" routeLength="94.90" waitingTime="103.00" waitingCount="1" stopTime="0.00" timeLoss="111.40" rerouteNo="0" devices="tripinfo_12" vType="DEFAULT_VEHTYPE" speedFactor="0.94" vaporized=""/>
    <tripinfo id="16" depart="16.00" departLane="n2ton4_0" departPos="5.10" departSpeed="0.00" departDelay="0.00" arrival="132.00" arrivalLane="n4ton3_0" arrivalPos="39.60" arrivalSpeed="14.63" duration="116.00" routeLength="83.13" waitingTime="101.00" waitingCount="1" stopTime="0.00" timeLoss="109.38" rerouteNo="0" devices="tripinfo_16" vType="DEFAULT_VEHTYPE" speedFactor="1.09" vaporized=""/>
    <tripinfo id="21" depart="21.00" departLane="n2ton4_0" departPos="5.10" departSpeed="0.00" departDelay="0.00" arrival="134.00" arrivalLane="n4ton3_0" arrivalPos="39.60" arrivalSpeed="14.11" duration="113.00" routeLength="83.13" waitingTime="98.00" waitingCount="1" stopTime="0.00" timeLoss="106.50" rerouteNo="0" devices="tripinfo_21" vType="DEFAULT_VEHTYPE" speedFactor="0.93" vaporized=""/>
    <tripinfo id="43" depart="43.00" departLane="n2ton4_0" departPos="5.10" departSpeed="0.00" departDelay="0.00" arrival="136.00" arrivalLane="n4ton3_0" arrivalPos="39.60" arrivalSpeed="14.48" duration="93.00" routeLength="83.13" waitingTime="76.00" waitingCount="1" stopTime="0.00" timeLoss="87.70" rerouteNo="0" devices="tripinfo_43" vType="DEFAULT_VEHTYPE" speedFactor="1.18" vaporized=""/>
    <tripinfo id="127" depart="127.00" departLane="n0ton4_0" departPos="5.10" departSpeed="0.00" departDelay="0.00" arrival="137.00" arrivalLane="n4ton2_0" arrivalPos="39.60" arrivalSpeed="15.48" duration="10.00" routeLength="94.90" waitingTime="0.00" waitingCount="0" stopTime="0.00" timeLoss="3.61" rerouteNo="0" devices="tripinfo_127" vType="DEFAULT_VEHTYPE" speedFactor="1.01" vaporized=""/>
    <tripinfo id="46" depart="46.00" departLane="n2ton4_0" departPos="5.10" departSpeed="0.00" departDelay="0.00" arrival="138.00" arrivalLane="n4ton0_0" arrivalPos="39.60" arrivalSpeed="16.95" duration="92.00" routeLength="94.90" waitingTime="76.00" waitingCount="1" stopTime="0.00" timeLoss="86.77" rerouteNo="0" devices="tripinfo_46" vType="DEFAULT_VEHTYPE" speedFactor="1.17" vaporized=""/>
    <tripinfo id="47" depart="129.00" departLane="n2ton4_0" departPos="5.10" departSpeed="0.00" departDelay="82.00" arrival="140.00" arrivalLane="n4ton0_0" arrivalPos="39.60" arrivalSpeed="15.61" duration="11.00" routeLength="94.90" waitingTime="0.00" waitingCount="0" stopTime="0.00" timeLoss="4.52" rerouteNo="0" devices="tripinfo_47" vType="DEFAULT_VEHTYPE" speedFactor="0.99" vaporized=""/>
    <tripinfo id="48" depart="132.00" departLane="n2ton4_0" departPos="5.10" departSpeed="0.00" departDelay="84.00" arrival="142.00" arrivalLane="n4ton0_0" arrivalPos="39.60" arrivalSpeed="16.20" duration="10.00" routeLength="94.90" waitingTime="0.00" waitingCount="0" stopTime="0.00" timeLoss="3.90" rerouteNo="0" devices="tripinfo_48" vType="DEFAULT_VEHTYPE" speedFactor="1.02" vaporized=""/>
    <tripinfo id="130" depart="130.00" departLane="n0ton4_0" departPos="5.10" departSpeed="0.00" departDelay="0.00" arrival="142.00" arrivalLane="n4ton1_0" arrivalPos="39.60" arrivalSpeed="13.08" duration="12.00" routeLength="83.13" waitingTime="0.00" waitingCount="0" stopTime="0.00" timeLoss="6.53" rerouteNo="0" devices="tripinfo_130" vType="DEFAULT_VEHTYPE" speedFactor="1.10" vaporized=""/>
    <tripinfo id="132" depart="133.00" departLane="n0ton4_0" departPos="5.10" departSpeed="0.00" departDelay="1.00" arrival="145.00" arrivalLane="n4ton1_0" arrivalPos="39.60" arrivalSpeed="14.48" duration="12.00" routeLength="83.13" waitingTime="0.00" waitingCount="0" stopTime="0.00" timeLoss="5.68" rerouteNo="0" devices="tripinfo_132" vType="DEFAULT_VEHTYPE" speedFactor="1.07" vaporized=""/>
    <tripinfo id="55" depart="135.00" departLane="n2ton4_0" departPos="5.10" departSpeed="0.00" departDelay="80.00" arrival="147.00" arrivalLane="n4ton3_0" arrivalPos="39.60" arrivalSpeed="14.87" duration="12.00" routeLength="83.13" waitingTime="0.00" waitingCount="0" stopTime="0.00" timeLoss="5.13" rerouteNo="0" devices="tripinfo_55" vType="DEFAULT_VEHTYPE" speedFactor="0.96" vaporized=""/>
    <tripinfo id="77" depart="138.00" departLane="n2ton4_0" departPos="5.10" departSpeed="0.00" departDelay="61.00" arrival="150.00" arrivalLane="n4ton3_0" arrivalPos="39.60" arrivalSpeed="13.36" duration="12.00" routeLength="83.13" waitingTime="0.00" waitingCount="0" stopTime="0.00" timeLoss="5.93" rerouteNo="0" devices="tripinfo_77" vType="DEFAULT_VEHTYPE" speedFactor="1.00" vaporized=""/>
    <tripinfo id="86" depart="141.00" departLane="n2ton4_0" departPos="5.10" departSpeed="0.00" departDelay="55.00" arrival="153.00" arrivalLane="n4ton3_0" arrivalPos="39.60" arrivalSpeed="13.36" duration="12.00" routeLength="83.13" waitingTime="0.00" waitingCount="0" stopTime="0.00" timeLoss="5.26" rerouteNo="0" devices="tripinfo_86" vType="DEFAULT_VEHTYPE" speedFactor="0.99" vaporized=""/>
    <tripinfo id="103" depart="145.00" departLane="n2ton4_0" departPos="5.10" departSpeed="0.00" departDelay="42.00" arrival="155.00" arrivalLane="n4ton0_0" arrivalPos="39.60" arrivalSpeed="16.23" duration="10.00" routeLength="94.90" waitingTime="0.00" waitingCount="0" stopTime="0.00" timeLoss="3.82" rerouteNo="0" devices="tripinfo_103" vType="DEFAULT_VEHTYPE" speedFactor="1.03" vaporized=""/>
    <tripinfo id="104" depart="148.00" departLane="n2ton4_0" departPos="5.10" departSpeed="0.00" departDelay="44.00" arrival="158.00" arrivalLane="n4ton0_0" arrivalPos="39.60" arrivalSpeed="14.85" duration="10.00" routeLength="94.90" waitingTime="0.00" waitingCount="0" stopTime="0.00" timeLoss="3.73" rerouteNo="0" devices="tripinfo_104" vType="DEFAULT_VEHTYPE" speedFactor="0.98" vaporized=""/>
    <tripinfo id="110" depart="151.00" departLane="n2ton4_0" departPos="5.10" departSpeed="0.00" departDelay="41.00" arrival="161.00" arrivalLane="n4ton0_0" arrivalPos="39.60" arrivalSpeed="15.86" duration="10.00" routeLength="94.90" waitingTime="0.00" waitingCount="0" stopTime="0.00" timeLoss="3.65" rerouteNo="0" devices="tripinfo_110" vType="DEFAULT_VEHTYPE" speedFactor="1.02" vaporized=""/>
    <tripinfo id="120" depart="157.00" departLane="n2ton4_0" departPos="5.10" departSpeed="0.00" departDelay="37.00" arrival="169.00" arrivalLane="n4ton3_0" arrivalPos="39.60" arrivalSpeed="13.51" duration="12.00" routeLength="83.13" waitingTime="0.00" waitingCount="0" stopTime="0.00" timeLoss="6.04" rerouteNo="0" devices="tripinfo_120" vType="DEFAULT_VEHTYPE" speedFactor="1.02" vaporized=""/>
    <tripinfo id="17" depart="17.00" departLane="n1ton4_0" departPos="5.10" departSpeed="0.00" departDelay="0.00" arrival="172.00" arrivalLane="n4ton0_1" arrivalPos="39.60" arrivalSpeed="14.45" duration="155.00" routeLength="93.45" waitingTime="139.00" waitingCount="1" stopTime="0.00" timeLoss="148.13" rerouteNo="0" devices="tripinfo_17" vType="DEFAULT_VEHTYPE" speedFactor="1.03" vaporized=""/>
    <tripinfo id="52" depart="52.00" departLane="n3ton4_0" departPos="5.10" departSpeed="0.00" departDelay="0.00" arrival="172.00" arrivalLane="n4ton2_1" arrivalPos="39.60" arrivalSpeed="15.03" duration="120.00" routeLength="93.45" waitingTime="103.00" waitingCount="1" stopTime="0.00" timeLoss="113.73" rerouteNo="0" devices="tripinfo_52" vType="DEFAULT_VEHTYPE" speedFactor="1.10" vaporized=""/>
    <tripinfo id="79" depart="79.00" departLane="n1ton4_0" departPos="5.10" departSpeed="0.00" departDelay="0.00" arrival="175.00" arrivalLane="n4ton0_1" arrivalPos="39.60" arrivalSpeed="14.25" duration="96.00" routeLength="93.45" waitingTime="74.00" waitingCount="1" stopTime="0.00" timeLoss="89.92" rerouteNo="0" devices="tripinfo_79" vType="DEFAULT_VEHTYPE" speedFactor="1.14" vaporized=""/>
    <tripinfo id="45" depart="52.00" departLane="n1ton4_0" departPos="5.10" departSpeed="0.00" departDelay="7.00" arrival="177.00" arrivalLane="n4ton0_1" arrivalPos="39.60" arrivalSpeed="15.03" duration="125.00" routeLength="93.45" waitingTime="108.00" waitingCount="1" stopTime="0.00" timeLoss="117.75" rerouteNo="0" devices="tripinfo_45" vType="DEFAULT_VEHTYPE" speedFactor="1.01" vaporized=""/>
    <tripinfo id="82" depart="82.00" departLane="n1ton4_0" departPos="5.10" departSpeed="0.00" departDelay="0.00" arrival="178.00" arrivalLane="n4ton2_0" arrivalPos="39.60" arrivalSpeed="13.29" duration="96.00" routeLength="83.13" waitingTime="71.00" waitingCount="1" stopTime="0.00" timeLoss="90.48" rerouteNo="0" devices="tripinfo_82" vType="DEFAULT_VEHTYPE" speedFactor="1.08" vaporized=""/>
    <tripinfo id="69" depart="69.00" departLane="n1ton4_0" departPos="5.10" departSpeed="0.00" departDelay="0.00" arrival="179.00" arrivalLane="n4ton0_1" arrivalPos="39.60" arrivalSpeed="16.66" duration="110.00" routeLength="93.45" waitingTime="92.00" waitingCount="1" stopTime="0.00" timeLoss="103.55" rerouteNo="0" devices="tripinfo_69" vType="DEFAULT_VEHTYPE" speedFactor="1.17" vaporized=""/>
    <tripinfo id="90" depart="90.00" departLane="n1ton4_0" departPos="5.10" departSpeed="0.00" departDelay="0.00" arrival="182.00" arrivalLane="n4ton2_0" arrivalPos="39.60" arrivalSpeed="14.44" duration="92.00" routeLength="83.13" waitingTime="71.00" waitingCount="1" stopTime="0.00" timeLoss="84.23" rerouteNo="0" devices="tripinfo_90" vType="DEFAULT_VEHTYPE" speedFactor="0.91" vaporized=""/>
    <tripinfo id="94" depart="94.00" departLane="n1ton4_0" departPos="5.10" departSpeed="0.00" departDelay="0.00" arrival="183.00" arrivalLane="n4ton0_1" arrivalPos="39.60" arrivalSpeed="14.26" duration="89.00" routeLength="93.45" waitingTime="71.00" waitingCount="1" stopTime="0.00" timeLoss="81.79" rerouteNo="0" devices="tripinfo_94" vType="DEFAULT_VEHTYPE" speedFactor="0.97" vaporized=""/>
    <tripinfo id="96" depart="97.00" departLane="n1ton4_0" departPos="5.10" departSpeed="0.00" departDelay="1.00" arrival="184.00" arrivalLane="n4ton3_0" arrivalPos="39.60" arrivalSpeed="16.22" duration="87.00" routeLength="94.90" waitingTime="70.00" waitingCount="1" stopTime="0.00" timeLoss="80.65" rerouteNo="0" devices="tripinfo_96" vType="DEFAULT_VEHTYPE" speedFactor="1.06" vaporized=""/>
    <tripinfo id="70" depart="70.00" departLane="n1ton4_0" departPos="5.10" departSpeed="0.00" departDelay="0.00" arrival="186.00" arrivalLane="n4ton0_1" arrivalPos="39.60" arrivalSpeed="15.93" duration="116.00" routeLength="93.45" waitingTime="96.00" waitingCount="2" stopTime="0.00" timeLoss="108.60" rerouteNo="0" devices="tripinfo_70" vType="DEFAULT_VEHTYPE" speedFactor="1.02" vaporized=""/>
    <tripinfo id="98" depart="173.00" departLane="n1ton4_0" departPos="5.10" departSpeed="0.00" departDelay="75.00" arrival="188.00" arrivalLane="n4ton0_1" arrivalPos="39.60" arrivalSpeed="14.65" duration="15.00" routeLength="93.45" waitingTime="0.00" waitingCount="0" stopTime="0.00" timeLoss="8.01" rerouteNo="0" devices="tripinfo_98" vType="DEFAULT_VEHTYPE" speedFactor="0.98" vaporized=""/>
    <tripinfo id="106" depart="178.00" departLane="n1ton4_0" departPos="5.10" departSpeed="0.00" departDelay="72.00" arrival="189.00" arrivalLane="n4ton3_0" arrivalPos="39.60" arrivalSpeed="17.01" duration="11.00" routeLength="94.90" waitingTime="0.00" waitingCount="0" stopTime="0.00" timeLoss="5.03" rerouteNo="0" devices="tripinfo_106" vType="DEFAULT_VEHTYPE" speedFactor="1.09" vaporized=""/>
    <tripinfo id="84" depart="85.00" departLane="n1ton4_0" departPos="5.10" departSpeed="0.00" departDelay="1.00" arrival="190.00" arrivalLane="n4ton0_1" arrivalPos="39.60" arrivalSpeed="14.78" duration="105.00" routeLength="93.45" waitingTime="86.00" waitingCount="2" stopTime="0.00" timeLoss="98.68" rerouteNo="0" devices="tripinfo_84" vType="DEFAULT_VEHTYPE" speedFactor="1.12" vaporized=""/>
    <tripinfo id="108" depart="182.00" departLane="n1ton4_0" departPos="5.10" departSpeed="0.00" departDelay="74.00" arrival="193.00" arrivalLane="n4ton2_0" arrivalPos="39.60" arrivalSpeed="13.74" duration="11.00" routeLength="83.13" waitingTime="0.00" waitingCount="0" stopTime="0.00" timeLoss="5.08" rerouteNo="0" devices="tripinfo_108" vType="DEFAULT_VEHTYPE" speedFactor="1.03" vaporized=""/>
    <tripinfo id="121" depart="185.00" departLane="n1ton4_0" departPos="5.10" departSpeed="0.00" departDelay="64.00" arrival="197.00" arrivalLane="n4ton0_1" arrivalPos="39.60" arrivalSpeed="13.31" duration="12.00" routeLength="93.45" waitingTime="0.00" waitingCount="0" stopTime="0.00" timeLoss="3.93" rerouteNo="0" devices="tripinfo_121" vType="DEFAULT_VEHTYPE" speedFactor="0.89" vaporized=""/>
    <tripinfo id="122" depart="186.00" departLane="n1ton4_0" departPos="5.10" departSpeed="0.00" departDelay="64.00" arrival="198.00" arrivalLane="n4ton2_0" arrivalPos="39.60" arrivalSpeed="13.32" duration="12.00" routeLength="83.13" waitingTime="0.00" waitingCount="0" stopTime="0.00" timeLoss="4.48" rerouteNo="0" devices="tripinfo_122" vType="DEFAULT_VEHTYPE" speedFactor="0.83" vaporized=""/>
    <tripinfo id="125" depart="189.00" departLane="n1ton4_0" departPos="5.10" departSpeed="0.00" departDelay="64.00" arrival="200.00" arrivalLane="n4ton0_1" arrivalPos="39.60" arrivalSpeed="15.27" duration="11.00" routeLength="93.45" waitingTime="0.00" waitingCount="0" stopTime="0.00" timeLoss="4.68" rerouteNo="0" devices="tripinfo_125" vType="DEFAULT_VEHTYPE" speedFactor="1.09" vaporized=""/>