<?xml version="1.0" encoding="UTF-8"?>

<!-- generated on Wed Apr 29 02:32:07 2020 by Eclipse SUMO GUI Version 1.5.0
<configuration xmlns:xsi="http://www.w3.org/2001/XMLSchema-instance" xsi:noNamespaceSchemaLocation="http://sumo.dlr.de/xsd/sumoConfiguration.xsd">

    <input>
        <net-file value="my_net.net.xml"/>
        <route-files value="my_route.rou.xml"/>
        <additional-files value="demo.add.xml"/>
    </input>

    <output>
        <tripinfo-output value="tripinfo.xml"/>
    </output>

    <time>
        <begin value="0"/>
        <end value="2000"/>
    </time>

    <traci_server>
        <remote-port value="61864"/>
    </traci_server>

</configuration>
-->

<tripinfos xmlns:xsi="http://www.w3.org/2001/XMLSchema-instance" xsi:noNamespaceSchemaLocation="http://sumo.dlr.de/xsd/tripinfo_file.xsd">
    <tripinfo id="1" depart="1.00" departLane="n1ton4_0" departPos="5.10" departSpeed="0.00" departDelay="0.00" arrival="13.00" arrivalLane="n4ton2_0" arrivalPos="39.60" arrivalSpeed="14.31" duration="12.00" routeLength="83.13" waitingTime="0.00" waitingCount="0" stopTime="0.00" timeLoss="5.71" rerouteNo="0" devices="tripinfo_1" vType="DEFAULT_VEHTYPE" speedFactor="0.94" vaporized=""/>
    <tripinfo id="2" depart="4.00" departLane="n1ton4_0" departPos="5.10" departSpeed="0.00" departDelay="2.00" arrival="15.00" arrivalLane="n4ton0_1" arrivalPos="39.60" arrivalSpeed="14.63" duration="11.00" routeLength="93.45" waitingTime="0.00" waitingCount="0" stopTime="0.00" timeLoss="4.47" rerouteNo="0" devices="tripinfo_2" vType="DEFAULT_VEHTYPE" speedFactor="1.01" vaporized=""/>
    <tripinfo id="4" depart="5.00" departLane="n1ton4_0" departPos="5.10" departSpeed="0.00" departDelay="1.00" arrival="18.00" arrivalLane="n4ton0_1" arrivalPos="39.60" arrivalSpeed="13.62" duration="13.00" routeLength="93.45" waitingTime="0.00" waitingCount="0" stopTime="0.00" timeLoss="6.50" rerouteNo="0" devices="tripinfo_4" vType="DEFAULT_VEHTYPE" speedFactor="1.03" vaporized=""/>
    <tripinfo id="6" depart="8.00" departLane="n1ton4_0" departPos="5.10" departSpeed="0.00" departDelay="2.00" arrival="18.00" arrivalLane="n4ton3_0" arrivalPos="39.60" arrivalSpeed="15.92" duration="10.00" routeLength="94.90" waitingTime="0.00" waitingCount="0" stopTime="0.00" timeLoss="3.74" rerouteNo="0" devices="tripinfo_6" vType="DEFAULT_VEHTYPE" speedFactor="1.05" vaporized=""/>
    <tripinfo id="13" depart="13.00" departLane="n1ton4_0" departPos="5.10" departSpeed="0.00" departDelay="0.00" arrival="25.00" arrivalLane="n4ton0_1" arrivalPos="39.60" arrivalSpeed="13.87" duration="12.00" routeLength="93.45" waitingTime="0.00" waitingCount="0" stopTime="0.00" timeLoss="4.82" rerouteNo="0" devices="tripinfo_13" vType="DEFAULT_VEHTYPE" speedFactor="1.03" vaporized=""/>
    <tripinfo id="18" depart="18.00" departLane="n1ton4_0" departPos="5.10" departSpeed="0.00" departDelay="0.00" arrival="30.00" arrivalLane="n4ton0_1" arrivalPos="39.60" arrivalSpeed="12.94" duration="12.00" routeLength="93.45" waitingTime="0.00" waitingCount="0" stopTime="0.00" timeLoss="4.37" rerouteNo="0" devices="tripinfo_18" vType="DEFAULT_VEHTYPE" speedFactor="0.93" vaporized=""/>
    <tripinfo id="25" depart="25.00" departLane="n1ton4_0" departPos="5.10" departSpeed="0.00" departDelay="0.00" arrival="37.00" arrivalLane="n4ton0_1" arrivalPos="39.60" arrivalSpeed="15.59" duration="12.00" routeLength="93.45" waitingTime="0.00" waitingCount="0" stopTime="0.00" timeLoss="4.32" rerouteNo="0" devices="tripinfo_25" vType="DEFAULT_VEHTYPE" speedFactor="0.98" vaporized=""/>
    <tripinfo id="28" depart="28.00" departLane="n1ton4_0" departPos="5.10" departSpeed="0.00" departDelay="0.00" arrival="41.00" arrivalLane="n4ton2_0" arrivalPos="39.60" arrivalSpeed="12.74" duration="13.00" routeLength="83.13" waitingTime="0.00" waitingCount="0" stopTime="0.00" timeLoss="5.76" rerouteNo="0" devices="tripinfo_28" vType="DEFAULT_VEHTYPE" speedFactor="0.87" vaporized=""/>
    <tripinfo id="5" depart="5.00" departLane="n3ton4_0" departPos="5.10" departSpeed="0.00" departDelay="0.00" arrival="42.00" arrivalLane="n4ton0_0" arrivalPos="39.60" arrivalSpeed="13.13" duration="37.00" routeLength="83.13" waitingTime="23.00" waitingCount="1" stopTime="0.00" timeLoss="29.98" rerouteNo="0" devices="tripinfo_5" vType="DEFAULT_VEHTYPE" speedFactor="0.83" vaporized=""/>
    <tripinfo id="16" depart="16.00" departLane="n3ton4_0" departPos="5.10" departSpeed="0.00" departDelay="0.00" arrival="45.00" arrivalLane="n4ton1_0" arrivalPos="39.60" arrivalSpeed="16.86" duration="29.00" routeLength="94.90" waitingTime="14.00" waitingCount="1" stopTime="0.00" timeLoss="23.16" rerouteNo="0" devices="tripinfo_16" vType="DEFAULT_VEHTYPE" speedFactor="1.12" vaporized=""/>
    <tripinfo id="24" depart="24.00" departLane="n3ton4_0" departPos="5.10" departSpeed="0.00" departDelay="0.00" arrival="47.00" arrivalLane="n4ton1_0" arrivalPos="39.60" arrivalSpeed="16.12" duration="23.00" routeLength="94.90" waitingTime="7.00" waitingCount="1" stopTime="0.00" timeLoss="16.17" rerouteNo="0" devices="tripinfo_24" vType="DEFAULT_VEHTYPE" speedFactor="1.01" vaporized=""/>
    <tripinfo id="37" depart="37.00" departLane="n1ton4_0" departPos="5.10" departSpeed="0.00" departDelay="0.00" arrival="48.00" arrivalLane="n4ton2_0" arrivalPos="39.60" arrivalSpeed="13.98" duration="11.00" routeLength="83.13" waitingTime="0.00" waitingCount="0" stopTime="0.00" timeLoss="5.99" rerouteNo="0" devices="tripinfo_37" vType="DEFAULT_VEHTYPE" speedFactor="1.15" vaporized=""/>
    <tripinfo id="32" depart="32.00" departLane="n3ton4_0" departPos="5.10" departSpeed="0.00" departDelay="0.00" arrival="49.00" arrivalLane="n4ton1_0" arrivalPos="39.60" arrivalSpeed="17.95" duration="17.00" routeLength="94.90" waitingTime="2.00" waitingCount="1" stopTime="0.00" timeLoss="10.82" rerouteNo="0" devices="tripinfo_32" vType="DEFAULT_VEHTYPE" speedFactor="1.13" vaporized=""/>
    <tripinfo id="38" depart="40.00" departLane="n1ton4_0" departPos="5.10" departSpeed="0.00" departDelay="2.00" arrival="51.00" arrivalLane="n4ton3_0" arrivalPos="39.60" arrivalSpeed="16.04" duration="11.00" routeLength="94.90" waitingTime="0.00" waitingCount="0" stopTime="0.00" timeLoss="4.38" rerouteNo="0" devices="tripinfo_38" vType="DEFAULT_VEHTYPE" speedFactor="1.01" vaporized=""/>
    <tripinfo id="51" depart="51.00" departLane="n3ton4_0" departPos="5.10" departSpeed="0.00" departDelay="0.00" arrival="62.00" arrivalLane="n4ton1_0" arrivalPos="39.60" arrivalSpeed="14.70" duration="11.00" routeLength="94.90" waitingTime="0.00" waitingCount="0" stopTime="0.00" timeLoss="4.38" rerouteNo="0" devices="tripinfo_51" vType="DEFAULT_VEHTYPE" speedFactor="0.96" vaporized=""/>
    <tripinfo id="56" depart="56.00" departLane="n3ton4_0" departPos="5.10" departSpeed="0.00" departDelay="0.00" arrival="66.00" arrivalLane="n4ton1_0" arrivalPos="39.60" arrivalSpeed="17.28" duration="10.00" routeLength="94.90" waitingTime="0.00" waitingCount="0" stopTime="0.00" timeLoss="4.36" rerouteNo="0" devices="tripinfo_56" vType="DEFAULT_VEHTYPE" speedFactor="1.09" vaporized=""/>
    <tripinfo id="9" depart="11.00" departLane="n2ton4_0" departPos="5.10" departSpeed="0.00" departDelay="2.00" arrival="76.00" arrivalLane="n4ton1_1" arrivalPos="39.60" arrivalSpeed="13.93" duration="65.00" routeLength="93.45" waitingTime="49.00" waitingCount="1" stopTime="0.00" timeLoss="57.77" rerouteNo="0" devices="tripinfo_9" vType="DEFAULT_VEHTYPE" speedFactor="0.94" vaporized=""/>
    <tripinfo id="27" depart="29.00" departLane="n0ton4_0" departPos="5.10" departSpeed="0.00" departDelay="2.00" arrival="76.00" arrivalLane="n4ton3_1" arrivalPos="39.60" arrivalSpeed="12.57" duration="47.00" routeLength="93.45" waitingTime="32.00" waitingCount="1" stopTime="0.00" timeLoss="38.82" rerouteNo="0" devices="tripinfo_27" vType="DEFAULT_VEHTYPE" speedFactor="0.83" vaporized=""/>
    <tripinfo id="0" depart="0.00" departLane="n0ton4_0" departPos="5.10" departSpeed="0.00" departDelay="0.00" arrival="82.00" arrivalLane="n4ton1_0" arrivalPos="39.60" arrivalSpeed="13.45" duration="82.00" routeLength="83.13" waitingTime="66.00" waitingCount="1" stopTime="0.00" timeLoss="76.17" rerouteNo="0" devices="tripinfo_0" vType="DEFAULT_VEHTYPE" speedFactor="1.06" vaporized=""/>
    <tripinfo id="3" depart="3.00" departLane="n2ton4_0" departPos="5.10" departSpeed="0.00" departDelay="0.00" arrival="83.00" arrivalLane="n4ton0_0" arrivalPos="39.60" arrivalSpeed="14.78" duration="80.00" routeLength="94.90" waitingTime="65.00" waitingCount="1" stopTime="0.00" timeLoss="74.36" rerouteNo="0" devices="tripinfo_3" vType="DEFAULT_VEHTYPE" speedFactor="1.08" vaporized=""/>
    <tripinfo id="23" depart="23.00" departLane="n0ton4_0" departPos="5.10" departSpeed="0.00" departDelay="0.00" arrival="84.00" arrivalLane="n4ton2_0" arrivalPos="39.60" arrivalSpeed="15.37" duration="61.00" routeLength="94.90" waitingTime="47.00" waitingCount="1" stopTime="0.00" timeLoss="55.08" rerouteNo="0" devices="tripinfo_23" vType="DEFAULT_VEHTYPE" speedFactor="1.02" vaporized=""/>
    <tripinfo id="8" depart="8.00" departLane="n2ton4_0" departPos="5.10" departSpeed="0.00" departDelay="0.00" arrival="85.00" arrivalLane="n4ton0_0" arrivalPos="39.60" arrivalSpeed="13.89" duration="77.00" routeLength="94.90" waitingTime="61.00" waitingCount="1" stopTime="0.00" timeLoss="70.03" rerouteNo="0" devices="tripinfo_8" vType="DEFAULT_VEHTYPE" speedFactor="0.89" vaporized=""/>
    <tripinfo id="26" depart="26.00" departLane="n0ton4_0" departPos="5.10" departSpeed="0.00" departDelay="0.00" arrival="86.00" arrivalLane="n4ton2_0" arrivalPos="39.60" arrivalSpeed="13.81" duration="60.00" routeLength="94.90" waitingTime="45.00" waitingCount="1" stopTime="0.00" timeLoss="53.08" rerouteNo="0" devices="tripinfo_26" vType="DEFAULT_VEHTYPE" speedFactor="0.89" vaporized=""/>
    <tripinfo id="12" depart="12.00" departLane="n2ton4_0" departPos="5.10" departSpeed="0.00" departDelay="0.00" arrival="87.00" arrivalLane="n4ton3_0" arrivalPos="39.60" arrivalSpeed="14.39" duration="75.00" routeLength="83.13" waitingTime="58.00" waitingCount="1" stopTime="0.00" timeLoss="69.26" rerouteNo="0" devices="tripinfo_12" vType="DEFAULT_VEHTYPE" speedFactor="1.09" vaporized=""/>
    <tripinfo id="14" depart="15.00" departLane="n2ton4_0" departPos="5.10" departSpeed="0.00" departDelay="1.00" arrival="89.00" arrivalLane="n4ton0_0" arrivalPos="39.60" arrivalSpeed="16.45" duration="74.00" routeLength="94.90" waitingTime="57.00" waitingCount="1" stopTime="0.00" timeLoss="68.02" rerouteNo="0" devices="tripinfo_14" vType="DEFAULT_VEHTYPE" speedFactor="1.05" vaporized=""/>
    <tripinfo id="33" depart="33.00" departLane="n0ton4_0" departPos="5.10" departSpeed="0.00" departDelay="0.00" arrival="89.00" arrivalLane="n4ton1_0" arrivalPos="39.60" arrivalSpeed="13.96" duration="56.00" routeLength="83.13" waitingTime="39.00" waitingCount="1" stopTime="0.00" timeLoss="49.50" rerouteNo="0" devices="tripinfo_33" vType="DEFAULT_VEHTYPE" speedFactor="0.93" vaporized=""/>
    <tripinfo id="17" depart="18.00" departLane="n2ton4_0" departPos="5.10" departSpeed="0.00" departDelay="1.00" arrival="91.00" arrivalLane="n4ton0_0" arrivalPos="39.60" arrivalSpeed="15.54" duration="73.00" routeLength="94.90" waitingTime="57.00" waitingCount="1" stopTime="0.00" timeLoss="66.57" rerouteNo="0" devices="tripinfo_17" vType="DEFAULT_VEHTYPE" speedFactor="0.99" vaporized=""/>
    <tripinfo id="40" depart="40.00" departLane="n0ton4_0" departPos="5.10" departSpeed="0.00" departDelay="0.00" arrival="92.00" arrivalLane="n4ton1_0" arrivalPos="39.60" arrivalSpeed="13.66" duration="52.00" routeLength="83.13" waitingTime="35.00" waitingCount="1" stopTime="0.00" timeLoss="45.21" rerouteNo="0" devices="tripinfo_40" vType="DEFAULT_VEHTYPE" speedFactor="0.99" vaporized=""/>
    <tripinfo id="20" depart="84.00" departLane="n2ton4_0" departPos="5.10" departSpeed="0.00" departDelay="64.00" arrival="93.00" arrivalLane="n4ton0_0" arrivalPos="39.60" arrivalSpeed="14.15" duration="9.00" routeLength="94.90" waitingTime="0.00" waitingCount="0" stopTime="0.00" timeLoss="2.69" rerouteNo="0" devices="tripinfo_20" vType="DEFAULT_VEHTYPE" speedFactor="0.94" vaporized=""/>
    <tripinfo id="43" depart="82.00" departLane="n0ton4_0" departPos="5.10" departSpeed="0.00" departDelay="39.00" arrival="94.00" arrivalLane="n4ton2_0" arrivalPos="39.60" arrivalSpeed="14.90" duration="12.00" routeLength="94.90" waitingTime="0.00" waitingCount="0" stopTime="0.00" timeLoss="5.08" rerouteNo="0" devices="tripinfo_43" vType="DEFAULT_VEHTYPE" speedFactor="0.97" vaporized=""/>
    <tripinfo id="45" depart="85.00" departLane="n0ton4_0" departPos="5.10" departSpeed="0.00" departDelay="40.00" arrival="95.00" arrivalLane="n4ton2_0" arrivalPos="39.60" arrivalSpeed="18.44" duration="10.00" routeLength="94.90" waitingTime="0.00" waitingCount="0" stopTime="0.00" timeLoss="4.88" rerouteNo="0" devices="tripinfo_45" vType="DEFAULT_VEHTYPE" speedFactor="1.18" vaporized=""/>
    <tripinfo id="21" depart="86.00" departLane="n2ton4_0" departPos="5.10" departSpeed="0.00" departDelay="65.00" arrival="97.00" arrivalLane="n4ton0_0" arrivalPos="39.60" arrivalSpeed="14.36" duration="11.00" routeLength="94.90" waitingTime="0.00" waitingCount="0" stopTime="0.00" timeLoss="4.19" rerouteNo="0" devices="tripinfo_21" vType="DEFAULT_VEHTYPE" speedFactor="0.94" vaporized=""/>
    <tripinfo id="22" depart="89.00" departLane="n2ton4_0" departPos="5.10" departSpeed="0.00" departDelay="67.00" arrival="100.00" arrivalLane="n4ton0_0" arrivalPos="39.60" arrivalSpeed="18.11" duration="11.00" routeLength="94.90" waitingTime="0.00" waitingCount="0" stopTime="0.00" timeLoss="5.50" rerouteNo="0" devices="tripinfo_22" vType="DEFAULT_VEHTYPE" speedFactor="1.16" vaporized=""/>
    <tripinfo id="52" depart="88.00" departLane="n0ton4_0" departPos="5.10" departSpeed="0.00" departDelay="36.00" arrival="100.00" arrivalLane="n4ton1_0" arrivalPos="39.60" arrivalSpeed="13.38" duration="12.00" routeLength="83.13" waitingTime="0.00" waitingCount="0" stopTime="0.00" timeLoss="6.27" rerouteNo="0" devices="tripinfo_52" vType="DEFAULT_VEHTYPE" speedFactor="1.09" vaporized=""/>
    <tripinfo id="58" depart="91.00" departLane="n0ton4_0" departPos="5.10" departSpeed="0.00" departDelay="33.00" arrival="104.00" arrivalLane="n4ton1_0" arrivalPos="39.60" arrivalSpeed="13.69" duration="13.00" routeLength="83.13" waitingTime="0.00" waitingCount="0" stopTime="0.00" timeLoss="6.11" rerouteNo="0" devices="tripinfo_58" vType="DEFAULT_VEHTYPE" speedFactor="0.90" vaporized=""/>
    <tripinfo id="31" depart="94.00" departLane="n2ton4_0" departPos="5.10" departSpeed="0.00" departDelay="63.00" arrival="106.00" arrivalLane="n4ton3_0" arrivalPos="39.60" arrivalSpeed="13.14" duration="12.00" routeLength="83.13" waitingTime="0.00" waitingCount="0" stopTime="0.00" timeLoss="5.18" rerouteNo="0" devices="tripinfo_31" vType="DEFAULT_VEHTYPE" speedFactor="0.95" vaporized=""/>
    <tripinfo id="36" depart="97.00" departLane="n2ton4_0" departPos="5.10" departSpeed="0.00" departDelay="61.00" arrival="107.00" arrivalLane="n4ton0_0" arrivalPos="39.60" arrivalSpeed="17.99" duration="10.00" routeLength="94.90" waitingTime="0.00" waitingCount="0" stopTime="0.00" timeLoss="4.27" rerouteNo="0" devices="tripinfo_36" vType="DEFAULT_VEHTYPE" speedFactor="1.18" vaporized=""/>
    <tripinfo id="64" depart="99.00" departLane="n0ton4_0" departPos="5.10" departSpeed="0.00" departDelay="35.00" arrival="110.00" arrivalLane="n4ton1_0" arrivalPos="39.60" arrivalSpeed="13.48" duration="11.00" routeLength="83.13" waitingTime="0.00" waitingCount="0" stopTime="0.00" timeLoss="5.55" rerouteNo="0" devices="tripinfo_64" vType="DEFAULT_VEHTYPE" speedFactor="1.17" vaporized=""/>
    <tripinfo id="41" depart="100.00" departLane="n2ton4_0" departPos="5.10" departSpeed="0.00" departDelay="59.00" arrival="111.00" arrivalLane="n4ton0_0" arrivalPos="39.60" arrivalSpeed="15.85" duration="11.00" routeLength="94.90" waitingTime="0.00" waitingCount="0" stopTime="0.00" timeLoss="4.45" rerouteNo="0" devices="tripinfo_41" vType="DEFAULT_VEHTYPE" speedFactor="1.02" vaporized=""/>
    <tripinfo id="67" depart="102.00" departLane="n0ton4_0" departPos="5.10" departSpeed="0.00" departDelay="35.00" arrival="112.00" arrivalLane="n4ton2_0" arrivalPos="39.60" arrivalSpeed="15.10" duration="10.00" routeLength="94.90" waitingTime="0.00" waitingCount="0" stopTime="0.00" timeLoss="3.61" rerouteNo="0" devices="tripinfo_67" vType="DEFAULT_VEHTYPE" speedFactor="1.00" vaporized=""/>
    <tripinfo id="53" depart="103.00" departLane="n2ton4_0" departPos="5.10" departSpeed="0.00" departDelay="50.00" arrival="113.00" arrivalLane="n4ton0_0" arrivalPos="39.60" arrivalSpeed="16.51" duration="10.00" routeLength="94.90" waitingTime="0.00" waitingCount="0" stopTime="0.00" timeLoss="3.96" rerouteNo="0" devices="tripinfo_53" vType="DEFAULT_VEHTYPE" speedFactor="1.04" vaporized=""/>
    <tripinfo id="54" depart="106.00" departLane="n2ton4_0" departPos="5.10" departSpeed="0.00" departDelay="52.00" arrival="116.00" arrivalLane="n4ton0_0" arrivalPos="39.60" arrivalSpeed="16.30" duration="10.00" routeLength="94.90" waitingTime="0.00" waitingCount="0" stopTime="0.00" timeLoss="3.80" rerouteNo="0" devices="tripinfo_54" vType="DEFAULT_VEHTYPE" speedFactor="1.04" vaporized=""/>
    <tripinfo id="78" depart="105.00" departLane="n0ton4_0" departPos="5.10" departSpeed="0.00" departDelay="27.00" arrival="118.00" arrivalLane="n4ton1_0" arrivalPos="39.60" arrivalSpeed="11.78" duration="13.00" routeLength="83.13" waitingTime="0.00" waitingCount="0" stopTime="0.00" timeLoss="6.48" rerouteNo="0" devices="tripinfo_78" vType="DEFAULT_VEHTYPE" speedFactor="0.97" vaporized=""/>
    <tripinfo id="63" depart="109.00" departLane="n2ton4_0" departPos="5.10" departSpeed="0.00" departDelay="46.00" arrival="120.00" arrivalLane="n4ton0_0" arrivalPos="39.60" arrivalSpeed="12.58" duration="11.00" routeLength="94.90" waitingTime="0.00" waitingCount="0" stopTime="0.00" timeLoss="3.47" rerouteNo="0" devices="tripinfo_63" vType="DEFAULT_VEHTYPE" speedFactor="0.85" vaporized=""/>
    <tripinfo id="84" depart="108.00" departLane="n0ton4_0" departPos="5.10" departSpeed="0.00" departDelay="24.00" arrival="120.00" arrivalLane="n4ton1_0" arrivalPos="39.60" arrivalSpeed="14.43" duration="12.00" routeLength="83.13" waitingTime="0.00" waitingCount="0" stopTime="0.00" timeLoss="5.87" rerouteNo="0" devices="tripinfo_84" vType="DEFAULT_VEHTYPE" speedFactor="1.02" vaporized=""/>
    <tripinfo id="86" depart="111.00" departLane="n0ton4_0" departPos="5.10" departSpeed="0.00" departDelay="25.00" arrival="121.00" arrivalLane="n4ton2_0" arrivalPos="39.60" arrivalSpeed="15.29" duration="10.00" routeLength="94.90" waitingTime="0.00" waitingCount="0" stopTime="0.00" timeLoss="3.78" rerouteNo="0" devices="tripinfo_86" vType="DEFAULT_VEHTYPE" speedFactor="0.99" vaporized=""/>
    <tripinfo id="10" depart="10.00" departLane="n3ton4_0" departPos="5.10" departSpeed="0.00" departDelay="0.00" arrival="125.00" arrivalLane="n4ton2_1" arrivalPos="39.60" arrivalSpeed="13.29" duration="115.00" routeLength="93.45" waitingTime="99.00" waitingCount="1" stopTime="0.00" timeLoss="106.92" rerouteNo="0" devices="tripinfo_10" vType="DEFAULT_VEHTYPE" speedFactor="0.86" vaporized=""/>
    <tripinfo id="48" depart="48.00" departLane="n1ton4_0" departPos="5.10" departSpeed="0.00" departDelay="0.00" arrival="126.00" arrivalLane="n4ton0_1" arrivalPos="39.60" arrivalSpeed="13.38" duration="78.00" routeLength="93.45" waitingTime="61.00" waitingCount="1" stopTime="0.00" timeLoss="70.15" rerouteNo="0" devices="tripinfo_48" vType="DEFAULT_VEHTYPE" speedFactor="0.90" vaporized=""/>
    <tripinfo id="46" depart="46.00" departLane="n3ton4_0" departPos="5.10" departSpeed="0.00" departDelay="0.00" arrival="127.00" arrivalLane="n4ton2_1" arrivalPos="39.60" arrivalSpeed="17.18" duration="81.00" routeLength="93.45" waitingTime="66.00" waitingCount="1" stopTime="0.00" timeLoss="74.17" rerouteNo="0" devices="tripinfo_46" vType="DEFAULT_VEHTYPE" speedFactor="1.10" vaporized=""/>
    <tripinfo id="49" depart="49.00" departLane="n1ton4_0" departPos="5.10" departSpeed="0.00" departDelay="0.00" arrival="127.00" arrivalLane="n4ton0_1" arrivalPos="39.60" arrivalSpeed="14.78" duration="78.00" routeLength="93.45" waitingTime="60.00" waitingCount="1" stopTime="0.00" timeLoss="71.70" rerouteNo="0" devices="tripinfo_49" vType="DEFAULT_VEHTYPE" speedFactor="1.03" vaporized=""/>
    <tripinfo id="82" depart="84.00" departLane="n1ton4_0" departPos="5.10" departSpeed="0.00" departDelay="2.00" arrival="129.00" arrivalLane="n4ton0_1" arrivalPos="39.60" arrivalSpeed="16.20" duration="45.00" routeLength="93.45" waitingTime="29.00" waitingCount="1" stopTime="0.00" timeLoss="38.82" rerouteNo="0" devices="tripinfo_82" vType="DEFAULT_VEHTYPE" speedFactor="1.12" vaporized=""/>
    <tripinfo id="89" depart="89.00" departLane="n3ton4_0" departPos="5.10" departSpeed="0.00" departDelay="0.00" arrival="129.00" arrivalLane="n4ton2_1" arrivalPos="39.60" arrivalSpeed="13.37" duration="40.00" routeLength="93.45" waitingTime="24.00" waitingCount="1" stopTime="0.00" timeLoss="32.21" rerouteNo="0" devices="tripinfo_89" vType="DEFAULT_VEHTYPE" speedFactor="0.88" vaporized=""/>
    <tripinfo id="39" depart="43.00" departLane="n1ton4_0" departPos="5.10" departSpeed="0.00" departDelay="4.00" arrival="136.00" arrivalLane="n4ton2_0" arrivalPos="39.60" arrivalSpeed="14.23" duration="93.00" routeLength="83.13" waitingTime="78.00" waitingCount="1" stopTime="0.00" timeLoss="87.63" rerouteNo="0" devices="tripinfo_39" vType="DEFAULT_VEHTYPE" speedFactor="1.17" vaporized=""/>
    <tripinfo id="93" depart="93.00" departLane="n3ton4_0" departPos="5.10" departSpeed="0.00" departDelay="0.00" arrival="138.00" arrivalLane="n4ton1_0" arrivalPos="39.60" arrivalSpeed="14.92" duration="45.00" routeLength="94.90" waitingTime="28.00" waitingCount="1" stopTime="0.00" timeLoss="39.13" rerouteNo="0" devices="tripinfo_93" vType="DEFAULT_VEHTYPE" speedFactor="1.02" vaporized=""/>
    <tripinfo id="57" depart="57.00" departLane="n1ton4_0" departPos="5.10" departSpeed="0.00" departDelay="0.00" arrival="139.00" arrivalLane="n4ton2_0" arrivalPos="39.60" arrivalSpeed="13.98" duration="82.00" routeLength="83.13" waitingTime="66.00" waitingCount="1" stopTime="0.00" timeLoss="75.33" rerouteNo="0" devices="tripinfo_57" vType="DEFAULT_VEHTYPE" speedFactor="1.00" vaporized=""/>
    <tripinfo id="95" depart="96.00" departLane="n3ton4_0" departPos="5.10" departSpeed="0.00" departDelay="1.00" arrival="140.00" arrivalLane="n4ton0_0" arrivalPos="39.60" arrivalSpeed="14.28" duration="44.00" routeLength="83.13" waitingTime="28.00" waitingCount="1" stopTime="0.00" timeLoss="37.67" rerouteNo="0" devices="tripinfo_95" vType="DEFAULT_VEHTYPE" speedFactor="0.97" vaporized=""/>
    <tripinfo id="73" depart="73.00" departLane="n1ton4_0" departPos="5.10" departSpeed="0.00" departDelay="0.00" arrival="141.00" arrivalLane="n4ton2_0" arrivalPos="39.60" arrivalSpeed="16.71" duration="68.00" routeLength="83.13" waitingTime="51.00" waitingCount="1" stopTime="0.00" timeLoss="62.17" rerouteNo="0" devices="tripinfo_73" vType="DEFAULT_VEHTYPE" speedFactor="1.14" vaporized=""/>
    <tripinfo id="103" depart="103.00" departLane="n3ton4_0" departPos="5.10" departSpeed="0.00" departDelay="0.00" arrival="143.00" arrivalLane="n4ton0_0" arrivalPos="39.60" arrivalSpeed="12.90" duration="40.00" routeLength="83.13" waitingTime="23.00" waitingCount="1" stopTime="0.00" timeLoss="33.19" rerouteNo="0" devices="tripinfo_103" vType="DEFAULT_VEHTYPE" speedFactor="0.98" vaporized=""/>
    <tripinfo id="81" depart="81.00" departLane="n1ton4_0" departPos="5.10" departSpeed="0.00" departDelay="0.00" arrival="144.00" arrivalLane="n4ton2_0" arrivalPos="39.60" arrivalSpeed="14.07" duration="63.00" routeLength="83.13" waitingTime="46.00" waitingCount="1" stopTime="0.00" timeLoss="56.59" rerouteNo="0" devices="tripinfo_81" vType="DEFAULT_VEHTYPE" speedFactor="1.08" vaporized=""/>
    <tripinfo id="110" depart="110.00" departLane="n3ton4_0" departPos="5.10" departSpeed="0.00" departDelay="0.00" arrival="145.00" arrivalLane="n4ton0_0" arrivalPos="39.60" arrivalSpeed="13.42" duration="35.00" routeLength="83.13" waitingTime="19.00" waitingCount="1" stopTime="0.00" timeLoss="28.86" rerouteNo="0" devices="tripinfo_110" vType="DEFAULT_VEHTYPE" speedFactor="1.09" vaporized=""/>
    <tripinfo id="88" depart="88.00" departLane="n1ton4_0" departPos="5.10" departSpeed="0.00" departDelay="0.00" arrival="146.00" arrivalLane="n4ton3_0" arrivalPos="39.60" arrivalSpeed="14.96" duration="58.00" routeLength="94.90" waitingTime="41.00" waitingCount="1" stopTime="0.00" timeLoss="50.98" rerouteNo="0" devices="tripinfo_88" vType="DEFAULT_VEHTYPE" speedFactor="0.94" vaporized=""/>
    <tripinfo id="112" depart="113.00" departLane="n3ton4_0" departPos="5.10" departSpeed="0.00" departDelay="1.00" arrival="147.00" arrivalLane="n4ton1_0" arrivalPos="39.60" arrivalSpeed="15.87" duration="34.00" routeLength="94.90" waitingTime="17.00" waitingCount="1" stopTime="0.00" timeLoss="27.22" rerouteNo="0" devices="tripinfo_112" vType="DEFAULT_VEHTYPE" speedFactor="1.00" vaporized=""/>
    <tripinfo id="91" depart="135.00" departLane="n1ton4_0" departPos="5.10" departSpeed="0.00" departDelay="44.00" arrival="148.00" arrivalLane="n4ton3_0" arrivalPos="39.60" arrivalSpeed="14.03" duration="13.00" routeLength="94.90" waitingTime="0.00" waitingCount="0" stopTime="0.00" timeLoss="5.65" rerouteNo="0" devices="tripinfo_91" vType="DEFAULT_VEHTYPE" speedFactor="0.91" vaporized=""/>
    <tripinfo id="132" depart="141.00" departLane="n3ton4_0" departPos="5.10" departSpeed="0.00" departDelay="9.00" arrival="151.00" arrivalLane="n4ton1_0" arrivalPos="39.60" arrivalSpeed="16.22" duration="10.00" routeLength="94.90" waitingTime="0.00" waitingCount="0" stopTime="0.00" timeLoss="4.19" rerouteNo="0" devices="tripinfo_132" vType="DEFAULT_VEHTYPE" speedFactor="1.06" vaporized=""/>
    <tripinfo id="111" depart="140.00" departLane="n1ton4_0" departPos="5.10" departSpeed="0.00" departDelay="29.00" arrival="152.00" arrivalLane="n4ton2_0" arrivalPos="39.60" arrivalSpeed="13.89" duration="12.00" routeLength="83.13" waitingTime="0.00" waitingCount="0" stopTime="0.00" timeLoss="5.37" rerouteNo="0" devices="tripinfo_111" vType="DEFAULT_VEHTYPE" speedFactor="1.03" vaporized=""/>
    <tripinfo id="118" depart="144.00" departLane="n1ton4_0" departPos="5.10" departSpeed="0.00" departDelay="26.00" arrival="156.00" arrivalLane="n4ton2_0" arrivalPos="39.60" arrivalSpeed="15.11" duration="12.00" routeLength="83.13" waitingTime="0.00" waitingCount="0" stopTime="0.00" timeLoss="5.26" rerouteNo="0" devices="tripinfo_118" vType="DEFAULT_VEHTYPE" speedFactor="1.04" vaporized=""/>
    <tripinfo id="119" depart="147.00" departLane="n1ton4_0" departPos="5.10" departSpeed="0.00" departDelay="28.00" arrival="157.00" arrivalLane="n4ton3_0" arrivalPos="39.60" arrivalSpeed="15.97" duration="10.00" routeLength="94.90" waitingTime="0.00" waitingCount="0" stopTime="0.00" timeLoss="3.74" rerouteNo="0" devices="tripinfo_119" vType="DEFAULT_VEHTYPE" speedFactor="1.01" vaporized=""/>
    <tripinfo id="144" depart="148.00" departLane="n3ton4_0" departPos="5.10" departSpeed="0.00" departDelay="4.00" arrival="159.00" arrivalLane="n4ton1_0" arrivalPos="39.60" arrivalSpeed="13.57" duration="11.00" routeLength="94.90" waitingTime="0.00" waitingCount="0" stopTime="0.00" timeLoss="3.76" rerouteNo="0" devices="tripinfo_144" vType="DEFAULT_VEHTYPE" speedFactor="0.89" vaporized=""/>
    <tripinfo id="133" depart="151.00" departLane="n1ton4_0" departPos="5.10" departSpeed="0.00" departDelay="18.00" arrival="163.00" arrivalLane="n4ton2_0" arrivalPos="39.60" arrivalSpeed="13.57" duration="12.00" routeLength="83.13" waitingTime="0.00" waitingCount="0" stopTime="0.00" timeLoss="5.89" rerouteNo="0" devices="tripinfo_133" vType="DEFAULT_VEHTYPE" speedFactor="1.01" vaporized=""/>
    <tripinfo id="145" depart="151.00" departLane="n3ton4_0" departPos="5.10" departSpeed="0.00" departDelay="6.00" arrival="163.00" arrivalLane="n4ton0_0" arrivalPos="39.60" arrivalSpeed="14.65" duration="12.00" routeLength="83.13" waitingTime="0.00" waitingCount="0" stopTime="0.00" timeLoss="6.25" rerouteNo="0" devices="tripinfo_145" vType="DEFAULT_VEHTYPE" speedFactor="1.07" vaporized=""/>
    <tripinfo id="135" depart="154.00" departLane="n1ton4_0" departPos="5.10" departSpeed="0.00" departDelay="19.00" arrival="165.00" arrivalLane="n4ton2_0" arrivalPos="39.60" arrivalSpeed="12.99" duration="11.00" routeLength="83.13" waitingTime="0.00" waitingCount="0" stopTime="0.00" timeLoss="5.24" rerouteNo="0" devices="tripinfo_135" vType="DEFAULT_VEHTYPE" speedFactor="1.12" vaporized=""/>
    <tripinfo id="142" depart="157.00" departLane="n1ton4_0" departPos="5.10" departSpeed="0.00" departDelay="15.00" arrival="167.00" arrivalLane="n4ton3_0" arrivalPos="39.60" arrivalSpeed="14.69" duration="10.00" routeLength="94.90" waitingTime="0.00" waitingCount="0" stopTime="0.00" timeLoss="3.65" rerouteNo="0" devices="tripinfo_142" vType="DEFAULT_VEHTYPE" speedFactor="0.95" vaporized=""/>
    <tripinfo id="151" depart="160.00" departLane="n1ton4_0" departPos="5.10" departSpeed="0.00" departDelay="9.00" arrival="173.00" arrivalLane="n4ton2_0" arrivalPos="39.60" arrivalSpeed="13.71" duration="13.00" routeLength="83.13" waitingTime="0.00" waitingCount="0" stopTime="0.00" timeLoss="5.89" rerouteNo="0" devices="tripinfo_151" vType="DEFAULT_VEHTYPE" speedFactor="0.93" vaporized=""/>
    <tripinfo id="163" depart="164.00" departLane="n1ton4_0" departPos="5.10" departSpeed="0.00" departDelay="1.00" arrival="176.00" arrivalLane="n4ton2_0" arrivalPos="39.60" arrivalSpeed="12.70" duration="12.00" routeLength="83.13" waitingTime="0.00" waitingCount="0" stopTime="0.00" timeLoss="5.74" rerouteNo="0" devices="tripinfo_163" vType="DEFAULT_VEHTYPE" speedFactor="0.92" vaporized=""/>