<?xml version="1.0" encoding="UTF-8"?>

<!-- generated on Tue Apr 28 23:32:04 2020 by Eclipse SUMO GUI Version 1.5.0
<configuration xmlns:xsi="http://www.w3.org/2001/XMLSchema-instance" xsi:noNamespaceSchemaLocation="http://sumo.dlr.de/xsd/sumoConfiguration.xsd">

    <input>
        <net-file value="my_net.net.xml"/>
        <route-files value="my_route.rou.xml"/>
        <additional-files value="demo.add.xml"/>
    </input>

    <output>
        <tripinfo-output value="tripinfo.xml"/>
    </output>

    <time>
        <begin value="0"/>
        <end value="2000"/>
    </time>

    <traci_server>
        <remote-port value="59591"/>
    </traci_server>

</configuration>
-->

<tripinfos xmlns:xsi="http://www.w3.org/2001/XMLSchema-instance" xsi:noNamespaceSchemaLocation="http://sumo.dlr.de/xsd/tripinfo_file.xsd">
    <tripinfo id="7" depart="8.00" departLane="n1ton4_0" departPos="5.10" departSpeed="0.00" departDelay="1.00" arrival="20.00" arrivalLane="n4ton0_1" arrivalPos="39.60" arrivalSpeed="14.99" duration="12.00" routeLength="93.45" waitingTime="0.00" waitingCount="0" stopTime="0.00" timeLoss="4.62" rerouteNo="0" devices="tripinfo_7" vType="DEFAULT_VEHTYPE" speedFactor="1.03" vaporized=""/>
    <tripinfo id="14" depart="15.00" departLane="n3ton4_0" departPos="5.10" departSpeed="0.00" departDelay="1.00" arrival="27.00" arrivalLane="n4ton2_1" arrivalPos="39.60" arrivalSpeed="14.00" duration="12.00" routeLength="93.45" waitingTime="0.00" waitingCount="0" stopTime="0.00" timeLoss="4.83" rerouteNo="0" devices="tripinfo_14" vType="DEFAULT_VEHTYPE" speedFactor="0.94" vaporized=""/>
    <tripinfo id="20" depart="23.00" departLane="n3ton4_0" departPos="5.10" departSpeed="0.00" departDelay="3.00" arrival="35.00" arrivalLane="n4ton2_1" arrivalPos="39.60" arrivalSpeed="15.57" duration="12.00" routeLength="93.45" waitingTime="0.00" waitingCount="0" stopTime="0.00" timeLoss="4.37" rerouteNo="0" devices="tripinfo_20" vType="DEFAULT_VEHTYPE" speedFactor="0.99" vaporized=""/>
    <tripinfo id="24" depart="24.00" departLane="n1ton4_0" departPos="5.10" departSpeed="0.00" departDelay="0.00" arrival="37.00" arrivalLane="n4ton0_1" arrivalPos="39.60" arrivalSpeed="14.51" duration="13.00" routeLength="93.45" waitingTime="0.00" waitingCount="0" stopTime="0.00" timeLoss="5.33" rerouteNo="0" devices="tripinfo_24" vType="DEFAULT_VEHTYPE" speedFactor="0.94" vaporized=""/>
    <tripinfo id="5" depart="5.00" departLane="n1ton4_0" departPos="5.10" departSpeed="0.00" departDelay="0.00" arrival="49.00" arrivalLane="n4ton2_0" arrivalPos="39.60" arrivalSpeed="14.59" duration="44.00" routeLength="83.13" waitingTime="29.00" waitingCount="1" stopTime="0.00" timeLoss="38.00" rerouteNo="0" devices="tripinfo_5" vType="DEFAULT_VEHTYPE" speedFactor="1.01" vaporized=""/>
    <tripinfo id="2" depart="2.00" departLane="n3ton4_0" departPos="5.10" departSpeed="0.00" departDelay="0.00" arrival="50.00" arrivalLane="n4ton1_0" arrivalPos="39.60" arrivalSpeed="14.84" duration="48.00" routeLength="94.90" waitingTime="32.00" waitingCount="1" stopTime="0.00" timeLoss="41.01" rerouteNo="0" devices="tripinfo_2" vType="DEFAULT_VEHTYPE" speedFactor="0.94" vaporized=""/>
    <tripinfo id="12" depart="12.00" departLane="n3ton4_0" departPos="5.10" departSpeed="0.00" departDelay="0.00" arrival="52.00" arrivalLane="n4ton1_0" arrivalPos="39.60" arrivalSpeed="16.69" duration="40.00" routeLength="94.90" waitingTime="23.00" waitingCount="1" stopTime="0.00" timeLoss="33.64" rerouteNo="0" devices="tripinfo_12" vType="DEFAULT_VEHTYPE" speedFactor="1.05" vaporized=""/>
    <tripinfo id="13" depart="13.00" departLane="n1ton4_0" departPos="5.10" departSpeed="0.00" departDelay="0.00" arrival="52.00" arrivalLane="n4ton3_0" arrivalPos="39.60" arrivalSpeed="13.36" duration="39.00" routeLength="94.90" waitingTime="22.00" waitingCount="1" stopTime="0.00" timeLoss="31.89" rerouteNo="0" devices="tripinfo_13" vType="DEFAULT_VEHTYPE" speedFactor="0.89" vaporized=""/>
    <tripinfo id="17" depart="17.00" departLane="n3ton4_0" departPos="5.10" departSpeed="0.00" departDelay="0.00" arrival="54.00" arrivalLane="n4ton0_0" arrivalPos="39.60" arrivalSpeed="15.14" duration="37.00" routeLength="83.13" waitingTime="21.00" waitingCount="1" stopTime="0.00" timeLoss="30.98" rerouteNo="0" devices="tripinfo_17" vType="DEFAULT_VEHTYPE" speedFactor="1.03" vaporized=""/>
    <tripinfo id="18" depart="18.00" departLane="n1ton4_0" departPos="5.10" departSpeed="0.00" departDelay="0.00" arrival="54.00" arrivalLane="n4ton2_0" arrivalPos="39.60" arrivalSpeed="14.01" duration="36.00" routeLength="83.13" waitingTime="18.00" waitingCount="1" stopTime="0.00" timeLoss="30.05" rerouteNo="0" devices="tripinfo_18" vType="DEFAULT_VEHTYPE" speedFactor="1.05" vaporized=""/>
    <tripinfo id="19" depart="20.00" departLane="n3ton4_0" departPos="5.10" departSpeed="0.00" departDelay="1.00" arrival="56.00" arrivalLane="n4ton0_0" arrivalPos="39.60" arrivalSpeed="13.25" duration="36.00" routeLength="83.13" waitingTime="20.00" waitingCount="1" stopTime="0.00" timeLoss="30.31" rerouteNo="0" devices="tripinfo_19" vType="DEFAULT_VEHTYPE" speedFactor="1.12" vaporized=""/>
    <tripinfo id="27" depart="27.00" departLane="n1ton4_0" departPos="5.10" departSpeed="0.00" departDelay="0.00" arrival="57.00" arrivalLane="n4ton2_0" arrivalPos="39.60" arrivalSpeed="13.68" duration="30.00" routeLength="83.13" waitingTime="13.00" waitingCount="1" stopTime="0.00" timeLoss="23.50" rerouteNo="0" devices="tripinfo_27" vType="DEFAULT_VEHTYPE" speedFactor="1.02" vaporized=""/>
    <tripinfo id="21" depart="24.00" departLane="n3ton4_0" departPos="5.10" departSpeed="0.00" departDelay="3.00" arrival="59.00" arrivalLane="n4ton1_0" arrivalPos="39.60" arrivalSpeed="14.67" duration="35.00" routeLength="94.90" waitingTime="19.00" waitingCount="1" stopTime="0.00" timeLoss="27.64" rerouteNo="0" devices="tripinfo_21" vType="DEFAULT_VEHTYPE" speedFactor="0.93" vaporized=""/>
    <tripinfo id="28" depart="30.00" departLane="n1ton4_0" departPos="5.10" departSpeed="0.00" departDelay="2.00" arrival="59.00" arrivalLane="n4ton2_0" arrivalPos="39.60" arrivalSpeed="13.81" duration="29.00" routeLength="83.13" waitingTime="12.00" waitingCount="1" stopTime="0.00" timeLoss="22.95" rerouteNo="0" devices="tripinfo_28" vType="DEFAULT_VEHTYPE" speedFactor="1.01" vaporized=""/>
    <tripinfo id="34" depart="50.00" departLane="n3ton4_0" departPos="5.10" departSpeed="0.00" departDelay="16.00" arrival="62.00" arrivalLane="n4ton0_0" arrivalPos="39.60" arrivalSpeed="14.41" duration="12.00" routeLength="83.13" waitingTime="0.00" waitingCount="0" stopTime="0.00" timeLoss="4.80" rerouteNo="0" devices="tripinfo_34" vType="DEFAULT_VEHTYPE" speedFactor="0.92" vaporized=""/>
    <tripinfo id="31" depart="49.00" departLane="n1ton4_0" departPos="5.10" departSpeed="0.00" departDelay="18.00" arrival="63.00" arrivalLane="n4ton2_0" arrivalPos="39.60" arrivalSpeed="13.18" duration="14.00" routeLength="83.13" waitingTime="0.00" waitingCount="0" stopTime="0.00" timeLoss="6.23" rerouteNo="0" devices="tripinfo_31" vType="DEFAULT_VEHTYPE" speedFactor="0.83" vaporized=""/>
    <tripinfo id="35" depart="52.00" departLane="n1ton4_0" departPos="5.10" departSpeed="0.00" departDelay="17.00" arrival="65.00" arrivalLane="n4ton3_0" arrivalPos="39.60" arrivalSpeed="15.14" duration="13.00" routeLength="94.90" waitingTime="0.00" waitingCount="0" stopTime="0.00" timeLoss="6.62" rerouteNo="0" devices="tripinfo_35" vType="DEFAULT_VEHTYPE" speedFactor="0.95" vaporized=""/>
    <tripinfo id="39" depart="53.00" departLane="n3ton4_0" departPos="5.10" departSpeed="0.00" departDelay="14.00" arrival="65.00" arrivalLane="n4ton0_0" arrivalPos="39.60" arrivalSpeed="14.50" duration="12.00" routeLength="83.13" waitingTime="0.00" waitingCount="0" stopTime="0.00" timeLoss="5.54" rerouteNo="0" devices="tripinfo_39" vType="DEFAULT_VEHTYPE" speedFactor="0.93" vaporized=""/>
    <tripinfo id="49" depart="58.00" departLane="n1ton4_0" departPos="5.10" departSpeed="0.00" departDelay="9.00" arrival="68.00" arrivalLane="n4ton3_0" arrivalPos="39.60" arrivalSpeed="15.61" duration="10.00" routeLength="94.90" waitingTime="0.00" waitingCount="0" stopTime="0.00" timeLoss="3.63" rerouteNo="0" devices="tripinfo_49" vType="DEFAULT_VEHTYPE" speedFactor="1.02" vaporized=""/>
    <tripinfo id="51" depart="62.00" departLane="n1ton4_0" departPos="5.10" departSpeed="0.00" departDelay="11.00" arrival="72.00" arrivalLane="n4ton3_0" arrivalPos="39.60" arrivalSpeed="18.45" duration="10.00" routeLength="94.90" waitingTime="0.00" waitingCount="0" stopTime="0.00" timeLoss="4.49" rerouteNo="0" devices="tripinfo_51" vType="DEFAULT_VEHTYPE" speedFactor="1.18" vaporized=""/>
    <tripinfo id="62" depart="63.00" departLane="n3ton4_0" departPos="5.10" departSpeed="0.00" departDelay="1.00" arrival="75.00" arrivalLane="n4ton0_0" arrivalPos="39.60" arrivalSpeed="13.76" duration="12.00" routeLength="83.13" waitingTime="0.00" waitingCount="0" stopTime="0.00" timeLoss="5.98" rerouteNo="0" devices="tripinfo_62" vType="DEFAULT_VEHTYPE" speedFactor="1.00" vaporized=""/>
    <tripinfo id="57" depart="66.00" departLane="n1ton4_0" departPos="5.10" departSpeed="0.00" departDelay="9.00" arrival="76.00" arrivalLane="n4ton3_0" arrivalPos="39.60" arrivalSpeed="17.44" duration="10.00" routeLength="94.90" waitingTime="0.00" waitingCount="0" stopTime="0.00" timeLoss="3.69" rerouteNo="0" devices="tripinfo_57" vType="DEFAULT_VEHTYPE" speedFactor="1.09" vaporized=""/>
    <tripinfo id="67" depart="67.00" departLane="n3ton4_0" departPos="5.10" departSpeed="0.00" departDelay="0.00" arrival="80.00" arrivalLane="n4ton0_0" arrivalPos="39.60" arrivalSpeed="12.48" duration="13.00" routeLength="83.13" waitingTime="0.00" waitingCount="0" stopTime="0.00" timeLoss="5.33" rerouteNo="0" devices="tripinfo_67" vType="DEFAULT_VEHTYPE" speedFactor="0.85" vaporized=""/>
    <tripinfo id="71" depart="71.00" departLane="n3ton4_0" departPos="5.10" departSpeed="0.00" departDelay="0.00" arrival="83.00" arrivalLane="n4ton0_0" arrivalPos="39.60" arrivalSpeed="13.99" duration="12.00" routeLength="83.13" waitingTime="0.00" waitingCount="0" stopTime="0.00" timeLoss="6.13" rerouteNo="0" devices="tripinfo_71" vType="DEFAULT_VEHTYPE" speedFactor="1.02" vaporized=""/>
    <tripinfo id="0" depart="0.00" departLane="n2ton4_0" departPos="5.10" departSpeed="0.00" departDelay="0.00" arrival="92.00" arrivalLane="n4ton1_1" arrivalPos="39.60" arrivalSpeed="15.06" duration="92.00" routeLength="93.45" waitingTime="77.00" waitingCount="1" stopTime="0.00" timeLoss="85.09" rerouteNo="0" devices="tripinfo_0" vType="DEFAULT_VEHTYPE" speedFactor="1.06" vaporized=""/>
    <tripinfo id="11" depart="11.00" departLane="n0ton4_0" departPos="5.10" departSpeed="0.00" departDelay="0.00" arrival="93.00" arrivalLane="n4ton3_1" arrivalPos="39.60" arrivalSpeed="12.12" duration="82.00" routeLength="93.45" waitingTime="66.00" waitingCount="1" stopTime="0.00" timeLoss="73.19" rerouteNo="0" devices="tripinfo_11" vType="DEFAULT_VEHTYPE" speedFactor="0.83" vaporized=""/>
    <tripinfo id="22" depart="22.00" departLane="n2ton4_0" departPos="5.10" departSpeed="0.00" departDelay="0.00" arrival="95.00" arrivalLane="n4ton1_1" arrivalPos="39.60" arrivalSpeed="13.32" duration="73.00" routeLength="93.45" waitingTime="57.00" waitingCount="1" stopTime="0.00" timeLoss="64.40" rerouteNo="0" devices="tripinfo_22" vType="DEFAULT_VEHTYPE" speedFactor="0.88" vaporized=""/>
    <tripinfo id="53" depart="53.00" departLane="n0ton4_0" departPos="5.10" departSpeed="0.00" departDelay="0.00" arrival="95.00" arrivalLane="n4ton3_1" arrivalPos="39.60" arrivalSpeed="13.65" duration="42.00" routeLength="93.45" waitingTime="25.00" waitingCount="1" stopTime="0.00" timeLoss="33.72" rerouteNo="0" devices="tripinfo_53" vType="DEFAULT_VEHTYPE" speedFactor="0.90" vaporized=""/>
    <tripinfo id="74" depart="74.00" departLane="n0ton4_0" departPos="5.10" departSpeed="0.00" departDelay="0.00" arrival="96.00" arrivalLane="n4ton3_1" arrivalPos="39.60" arrivalSpeed="15.64" duration="22.00" routeLength="93.45" waitingTime="7.00" waitingCount="1" stopTime="0.00" timeLoss="15.26" rerouteNo="0" devices="tripinfo_74" vType="DEFAULT_VEHTYPE" speedFactor="1.00" vaporized=""/>
    <tripinfo id="6" depart="6.00" departLane="n2ton4_0" departPos="5.10" departSpeed="0.00" departDelay="0.00" arrival="134.00" arrivalLane="n4ton3_0" arrivalPos="39.60" arrivalSpeed="14.14" duration="128.00" routeLength="83.13" waitingTime="113.00" waitingCount="1" stopTime="0.00" timeLoss="122.33" rerouteNo="0" devices="tripinfo_6" vType="DEFAULT_VEHTYPE" speedFactor="1.08" vaporized=""/>
    <tripinfo id="33" depart="33.00" departLane="n0ton4_0" departPos="5.10" departSpeed="0.00" departDelay="0.00" arrival="135.00" arrivalLane="n4ton1_0" arrivalPos="39.60" arrivalSpeed="12.81" duration="102.00" routeLength="83.13" waitingTime="86.00" waitingCount="1" stopTime="0.00" timeLoss="94.38" rerouteNo="0" devices="tripinfo_33" vType="DEFAULT_VEHTYPE" speedFactor="0.87" vaporized=""/>
    <tripinfo id="15" depart="15.00" departLane="n2ton4_0" departPos="5.10" departSpeed="0.00" departDelay="0.00" arrival="137.00" arrivalLane="n4ton0_0" arrivalPos="39.60" arrivalSpeed="13.62" duration="122.00" routeLength="94.90" waitingTime="106.00" waitingCount="1" stopTime="0.00" timeLoss="114.75" rerouteNo="0" devices="tripinfo_15" vType="DEFAULT_VEHTYPE" speedFactor="0.86" vaporized=""/>
    <tripinfo id="43" depart="43.00" departLane="n0ton4_0" departPos="5.10" departSpeed="0.00" departDelay="0.00" arrival="137.00" arrivalLane="n4ton2_0" arrivalPos="39.60" arrivalSpeed="15.85" duration="94.00" routeLength="94.90" waitingTime="78.00" waitingCount="1" stopTime="0.00" timeLoss="88.67" rerouteNo="0" devices="tripinfo_43" vType="DEFAULT_VEHTYPE" speedFactor="1.15" vaporized=""/>
    <tripinfo id="16" depart="18.00" departLane="n2ton4_0" departPos="5.10" departSpeed="0.00" departDelay="2.00" arrival="139.00" arrivalLane="n4ton3_0" arrivalPos="39.60" arrivalSpeed="13.67" duration="121.00" routeLength="83.13" waitingTime="105.00" waitingCount="1" stopTime="0.00" timeLoss="115.23" rerouteNo="0" devices="tripinfo_16" vType="DEFAULT_VEHTYPE" speedFactor="1.09" vaporized=""/>
    <tripinfo id="64" depart="64.00" departLane="n0ton4_0" departPos="5.10" departSpeed="0.00" departDelay="0.00" arrival="139.00" arrivalLane="n4ton2_0" arrivalPos="39.60" arrivalSpeed="13.46" duration="75.00" routeLength="94.90" waitingTime="58.00" waitingCount="1" stopTime="0.00" timeLoss="68.09" rerouteNo="0" devices="tripinfo_64" vType="DEFAULT_VEHTYPE" speedFactor="0.90" vaporized=""/>
    <tripinfo id="26" depart="26.00" departLane="n2ton4_0" departPos="5.10" departSpeed="0.00" departDelay="0.00" arrival="142.00" arrivalLane="n4ton3_0" arrivalPos="39.60" arrivalSpeed="14.94" duration="116.00" routeLength="83.13" waitingTime="99.00" waitingCount="1" stopTime="0.00" timeLoss="110.28" rerouteNo="0" devices="tripinfo_26" vType="DEFAULT_VEHTYPE" speedFactor="1.16" vaporized=""/>
    <tripinfo id="85" depart="85.00" departLane="n0ton4_0" departPos="5.10" departSpeed="0.00" departDelay="0.00" arrival="142.00" arrivalLane="n4ton1_0" arrivalPos="39.60" arrivalSpeed="14.70" duration="57.00" routeLength="83.13" waitingTime="40.00" waitingCount="1" stopTime="0.00" timeLoss="49.97" rerouteNo="0" devices="tripinfo_85" vType="DEFAULT_VEHTYPE" speedFactor="0.97" vaporized=""/>
    <tripinfo id="86" depart="88.00" departLane="n0ton4_0" departPos="5.10" departSpeed="0.00" departDelay="2.00" arrival="144.00" arrivalLane="n4ton2_0" arrivalPos="39.60" arrivalSpeed="15.93" duration="56.00" routeLength="94.90" waitingTime="38.00" waitingCount="1" stopTime="0.00" timeLoss="50.11" rerouteNo="0" devices="tripinfo_86" vType="DEFAULT_VEHTYPE" speedFactor="1.08" vaporized=""/>
    <tripinfo id="29" depart="29.00" departLane="n2ton4_0" departPos="5.10" departSpeed="0.00" departDelay="0.00" arrival="145.00" arrivalLane="n4ton3_0" arrivalPos="39.60" arrivalSpeed="12.20" duration="116.00" routeLength="83.13" waitingTime="98.00" waitingCount="1" stopTime="0.00" timeLoss="109.30" rerouteNo="0" devices="tripinfo_29" vType="DEFAULT_VEHTYPE" speedFactor="0.98" vaporized=""/>
    <tripinfo id="90" depart="137.00" departLane="n0ton4_0" departPos="5.10" departSpeed="0.00" departDelay="47.00" arrival="147.00" arrivalLane="n4ton2_0" arrivalPos="39.60" arrivalSpeed="14.94" duration="10.00" routeLength="94.90" waitingTime="0.00" waitingCount="0" stopTime="0.00" timeLoss="3.47" rerouteNo="0" devices="tripinfo_90" vType="DEFAULT_VEHTYPE" speedFactor="0.94" vaporized=""/>
    <tripinfo id="30" depart="134.00" departLane="n2ton4_0" departPos="5.10" departSpeed="0.00" departDelay="104.00" arrival="148.00" arrivalLane="n4ton3_0" arrivalPos="39.60" arrivalSpeed="13.11" duration="14.00" routeLength="83.13" waitingTime="1.00" waitingCount="1" stopTime="0.00" timeLoss="6.60" rerouteNo="0" devices="tripinfo_30" vType="DEFAULT_VEHTYPE" speedFactor="0.89" vaporized=""/>
    <tripinfo id="36" depart="138.00" departLane="n2ton4_0" departPos="5.10" departSpeed="0.00" departDelay="102.00" arrival="150.00" arrivalLane="n4ton0_0" arrivalPos="39.60" arrivalSpeed="16.90" duration="12.00" routeLength="94.90" waitingTime="0.00" waitingCount="0" stopTime="0.00" timeLoss="5.96" rerouteNo="0" devices="tripinfo_36" vType="DEFAULT_VEHTYPE" speedFactor="1.13" vaporized=""/>
    <tripinfo id="92" depart="140.00" departLane="n0ton4_0" departPos="5.10" departSpeed="0.00" departDelay="48.00" arrival="151.00" arrivalLane="n4ton2_0" arrivalPos="39.60" arrivalSpeed="12.86" duration="11.00" routeLength="94.90" waitingTime="0.00" waitingCount="0" stopTime="0.00" timeLoss="3.39" rerouteNo="0" devices="tripinfo_92" vType="DEFAULT_VEHTYPE" speedFactor="0.88" vaporized=""/>
    <tripinfo id="46" depart="141.00" departLane="n2ton4_0" departPos="5.10" departSpeed="0.00" departDelay="95.00" arrival="152.00" arrivalLane="n4ton3_0" arrivalPos="39.60" arrivalSpeed="15.56" duration="11.00" routeLength="83.13" waitingTime="0.00" waitingCount="0" stopTime="0.00" timeLoss="5.36" rerouteNo="0" devices="tripinfo_46" vType="DEFAULT_VEHTYPE" speedFactor="1.17" vaporized=""/>
    <tripinfo id="47" depart="144.00" departLane="n2ton4_0" departPos="5.10" departSpeed="0.00" departDelay="97.00" arrival="155.00" arrivalLane="n4ton0_0" arrivalPos="39.60" arrivalSpeed="15.50" duration="11.00" routeLength="94.90" waitingTime="0.00" waitingCount="0" stopTime="0.00" timeLoss="4.35" rerouteNo="0" devices="tripinfo_47" vType="DEFAULT_VEHTYPE" speedFactor="0.99" vaporized=""/>
    <tripinfo id="94" depart="144.00" departLane="n0ton4_0" departPos="5.10" departSpeed="0.00" departDelay="50.00" arrival="156.00" arrivalLane="n4ton1_0" arrivalPos="39.60" arrivalSpeed="13.19" duration="12.00" routeLength="83.13" waitingTime="0.00" waitingCount="0" stopTime="0.00" timeLoss="5.57" rerouteNo="0" devices="tripinfo_94" vType="DEFAULT_VEHTYPE" speedFactor="0.91" vaporized=""/>
    <tripinfo id="52" depart="147.00" departLane="n2ton4_0" departPos="5.10" departSpeed="0.00" departDelay="95.00" arrival="157.00" arrivalLane="n4ton0_0" arrivalPos="39.60" arrivalSpeed="16.49" duration="10.00" routeLength="94.90" waitingTime="0.00" waitingCount="0" stopTime="0.00" timeLoss="4.30" rerouteNo="0" devices="tripinfo_52" vType="DEFAULT_VEHTYPE" speedFactor="1.10" vaporized=""/>
    <tripinfo id="96" depart="147.00" departLane="n0ton4_0" departPos="5.10" departSpeed="0.00" departDelay="51.00" arrival="158.00" arrivalLane="n4ton2_0" arrivalPos="39.60" arrivalSpeed="16.49" duration="11.00" routeLength="94.90" waitingTime="0.00" waitingCount="0" stopTime="0.00" timeLoss="4.98" rerouteNo="0" devices="tripinfo_96" vType="DEFAULT_VEHTYPE" speedFactor="1.04" vaporized=""/>
    <tripinfo id="111" depart="150.00" departLane="n0ton4_0" departPos="5.10" departSpeed="0.00" departDelay="39.00" arrival="161.00" arrivalLane="n4ton2_0" arrivalPos="39.60" arrivalSpeed="15.39" duration="11.00" routeLength="94.90" waitingTime="0.00" waitingCount="0" stopTime="0.00" timeLoss="4.13" rerouteNo="0" devices="tripinfo_111" vType="DEFAULT_VEHTYPE" speedFactor="0.98" vaporized=""/>
    <tripinfo id="56" depart="150.00" departLane="n2ton4_0" departPos="5.10" departSpeed="0.00" departDelay="94.00" arrival="162.00" arrivalLane="n4ton3_0" arrivalPos="39.60" arrivalSpeed="12.52" duration="12.00" routeLength="83.13" waitingTime="0.00" waitingCount="0" stopTime="0.00" timeLoss="5.23" rerouteNo="0" devices="tripinfo_56" vType="DEFAULT_VEHTYPE" speedFactor="0.96" vaporized=""/>
    <tripinfo id="66" depart="153.00" departLane="n2ton4_0" departPos="5.10" departSpeed="0.00" departDelay="87.00" arrival="164.00" arrivalLane="n4ton0_0" arrivalPos="39.60" arrivalSpeed="12.91" duration="11.00" routeLength="94.90" waitingTime="0.00" waitingCount="0" stopTime="0.00" timeLoss="3.46" rerouteNo="0" devices="tripinfo_66" vType="DEFAULT_VEHTYPE" speedFactor="0.88" vaporized=""/>
    <tripinfo id="114" depart="153.00" departLane="n0ton4_0" departPos="5.10" departSpeed="0.00" departDelay="39.00" arrival="164.00" arrivalLane="n4ton2_0" arrivalPos="39.60" arrivalSpeed="15.82" duration="11.00" routeLength="94.90" waitingTime="0.00" waitingCount="0" stopTime="0.00" timeLoss="4.25" rerouteNo="0" devices="tripinfo_114" vType="DEFAULT_VEHTYPE" speedFactor="1.01" vaporized=""/>
    <tripinfo id="119" depart="156.00" departLane="n0ton4_0" departPos="5.10" departSpeed="0.00" departDelay="37.00" arrival="167.00" arrivalLane="n4ton2_0" arrivalPos="39.60" arrivalSpeed="15.11" duration="11.00" routeLength="94.90" waitingTime="0.00" waitingCount="0" stopTime="0.00" timeLoss="4.30" rerouteNo="0" devices="tripinfo_119" vType="DEFAULT_VEHTYPE" speedFactor="0.97" vaporized=""/>
    <tripinfo id="69" depart="157.00" departLane="n2ton4_0" departPos="5.10" departSpeed="0.00" departDelay="88.00" arrival="168.00" arrivalLane="n4ton3_0" arrivalPos="39.60" arrivalSpeed="15.34" duration="11.00" routeLength="83.13" waitingTime="0.00" waitingCount="0" stopTime="0.00" timeLoss="5.47" rerouteNo="0" devices="tripinfo_69" vType="DEFAULT_VEHTYPE" speedFactor="1.17" vaporized=""/>
    <tripinfo id="101" depart="161.00" departLane="n2ton4_0" departPos="5.10" departSpeed="0.00" departDelay="60.00" arrival="171.00" arrivalLane="n4ton0_0" arrivalPos="39.60" arrivalSpeed="14.48" duration="10.00" routeLength="94.90" waitingTime="0.00" waitingCount="0" stopTime="0.00" timeLoss="3.56" rerouteNo="0" devices="tripinfo_101" vType="DEFAULT_VEHTYPE" speedFactor="0.97" vaporized=""/>
    <tripinfo id="122" depart="159.00" departLane="n0ton4_0" departPos="5.10" departSpeed="0.00" departDelay="37.00" arrival="171.00" arrivalLane="n4ton1_0" arrivalPos="39.60" arrivalSpeed="13.70" duration="12.00" routeLength="83.13" waitingTime="0.00" waitingCount="0" stopTime="0.00" timeLoss="6.48" rerouteNo="0" devices="tripinfo_122" vType="DEFAULT_VEHTYPE" speedFactor="1.15" vaporized=""/>
    <tripinfo id="40" depart="55.00" departLane="n1ton4_0" departPos="5.10" departSpeed="0.00" departDelay="15.00" arrival="176.00" arrivalLane="n4ton0_1" arrivalPos="39.60" arrivalSpeed="14.37" duration="121.00" routeLength="93.45" waitingTime="107.00" waitingCount="1" stopTime="0.00" timeLoss="115.44" rerouteNo="0" devices="tripinfo_40" vType="DEFAULT_VEHTYPE" speedFactor="1.18" vaporized=""/>
    <tripinfo id="23" depart="49.00" departLane="n3ton4_0" departPos="5.10" departSpeed="0.00" departDelay="26.00" arrival="177.00" arrivalLane="n4ton2_1" arrivalPos="39.60" arrivalSpeed="13.81" duration="128.00" routeLength="93.45" waitingTime="112.00" waitingCount="1" stopTime="0.00" timeLoss="120.44" rerouteNo="0" devices="tripinfo_23" vType="DEFAULT_VEHTYPE" speedFactor="0.94" vaporized=""/>
    <tripinfo id="60" depart="60.00" departLane="n3ton4_0" departPos="5.10" departSpeed="0.00" departDelay="0.00" arrival="179.00" arrivalLane="n4ton2_1" arrivalPos="39.60" arrivalSpeed="15.88" duration="119.00" routeLength="93.45" waitingTime="104.00" waitingCount="1" stopTime="0.00" timeLoss="112.11" rerouteNo="0" devices="tripinfo_60" vType="DEFAULT_VEHTYPE" speedFactor="1.04" vaporized=""/>
    <tripinfo id="58" depart="69.00" departLane="n1ton4_0" departPos="5.10" departSpeed="0.00" departDelay="11.00" arrival="180.00" arrivalLane="n4ton0_1" arrivalPos="39.60" arrivalSpeed="14.63" duration="111.00" routeLength="93.45" waitingTime="89.00" waitingCount="1" stopTime="0.00" timeLoss="104.16" rerouteNo="0" devices="tripinfo_58" vType="DEFAULT_VEHTYPE" speedFactor="1.04" vaporized=""/>
    <tripinfo id="61" depart="61.00" departLane="n3ton4_0" departPos="5.10" departSpeed="0.00" departDelay="0.00" arrival="181.00" arrivalLane="n4ton2_1" arrivalPos="39.60" arrivalSpeed="15.63" duration="120.00" routeLength="93.45" waitingTime="102.00" waitingCount="1" stopTime="0.00" timeLoss="113.42" rerouteNo="0" devices="tripinfo_61" vType="DEFAULT_VEHTYPE" speedFactor="1.09" vaporized=""/>
    <tripinfo id="45" depart="56.00" departLane="n1ton4_0" departPos="5.10" departSpeed="0.00" departDelay="11.00" arrival="182.00" arrivalLane="n4ton0_1" arrivalPos="39.60" arrivalSpeed="15.66" duration="126.00" routeLength="93.45" waitingTime="109.00" waitingCount="1" stopTime="0.00" timeLoss="118.62" rerouteNo="0" devices="tripinfo_45" vType="DEFAULT_VEHTYPE" speedFactor="1.01" vaporized=""/>
    <tripinfo id="126" depart="126.00" departLane="n3ton4_0" departPos="5.10" departSpeed="0.00" departDelay="0.00" arrival="183.00" arrivalLane="n4ton2_1" arrivalPos="39.60" arrivalSpeed="13.78" duration="57.00" routeLength="93.45" waitingTime="41.00" waitingCount="1" stopTime="0.00" timeLoss="50.18" rerouteNo="0" devices="tripinfo_126" vType="DEFAULT_VEHTYPE" speedFactor="1.01" vaporized=""/>
    <tripinfo id="72" depart="72.00" departLane="n1ton4_0" departPos="5.10" departSpeed="0.00" departDelay="0.00" arrival="185.00" arrivalLane="n4ton0_1" arrivalPos="39.60" arrivalSpeed="14.06" duration="113.00" routeLength="93.45" waitingTime="86.00" waitingCount="1" stopTime="0.00" timeLoss="106.65" rerouteNo="0" devices="tripinfo_72" vType="DEFAULT_VEHTYPE" speedFactor="1.10" vaporized=""/>
    <tripinfo id="50" depart="61.00" departLane="n1ton4_0" departPos="5.10" departSpeed="0.00" departDelay="11.00" arrival="187.00" arrivalLane="n4ton0_1" arrivalPos="39.60" arrivalSpeed="14.89" duration="126.00" routeLength="93.45" waitingTime="106.00" waitingCount="2" stopTime="0.00" timeLoss="118.65" rerouteNo="0" devices="tripinfo_50" vType="DEFAULT_VEHTYPE" speedFactor="0.97" vaporized=""/>
    <tripinfo id="54" depart="65.00" departLane="n1ton4_0" departPos="5.10" departSpeed="0.00" departDelay="11.00" arrival="189.00" arrivalLane="n4ton0_1" arrivalPos="39.60" arrivalSpeed="13.73" duration="124.00" routeLength="93.45" waitingTime="105.00" waitingCount="2" stopTime="0.00" timeLoss="117.11" rerouteNo="0" devices="tripinfo_54" vType="DEFAULT_VEHTYPE" speedFactor="1.03" vaporized=""/>
    <tripinfo id="82" depart="82.00" departLane="n1ton4_0" departPos="5.10" departSpeed="0.00" departDelay="0.00" arrival="192.00" arrivalLane="n4ton0_1" arrivalPos="39.60" arrivalSpeed="13.55" duration="110.00" routeLength="93.45" waitingTime="85.00" waitingCount="1" stopTime="0.00" timeLoss="102.18" rerouteNo="0" devices="tripinfo_82" vType="DEFAULT_VEHTYPE" speedFactor="0.90" vaporized=""/>
    <tripinfo id="76" depart="76.00" departLane="n1ton4_0" departPos="5.10" departSpeed="0.00" departDelay="0.00" arrival="220.00" arrivalLane="n4ton3_0" arrivalPos="39.60" arrivalSpeed="15.37" duration="144.00" routeLength="94.90" waitingTime="116.00" waitingCount="2" stopTime="0.00" timeLoss="137.67" rerouteNo="0" devices="tripinfo_76" vType="DEFAULT_VEHTYPE" speedFactor="1.00" vaporized=""/>
    <tripinfo id="89" depart="89.00" departLane="n3ton4_0" departPos="5.10" departSpeed="0.00" departDelay="0.00" arrival="220.00" arrivalLane="n4ton0_0" arrivalPos="39.60" arrivalSpeed="15.04" duration="131.00" routeLength="83.13" waitingTime="115.00" waitingCount="1" stopTime="0.00" timeLoss="124.32" rerouteNo="0" devices="tripinfo_89" vType="DEFAULT_VEHTYPE" speedFactor="0.99" vaporized=""/>
    <tripinfo id="83" depart="86.00" departLane="n1ton4_0" departPos="5.10" departSpeed="0.00" departDelay="3.00" arrival="222.00" arrivalLane="n4ton2_0" arrivalPos="39.60" arrivalSpeed="14.17" duration="136.00" routeLength="83.13" waitingTime="111.00" waitingCount="2" stopTime="0.00" timeLoss="129.89" rerouteNo="0" devices="tripinfo_83" vType="DEFAULT_VEHTYPE" speedFactor="1.14" vaporized=""/>
    <tripinfo id="105" depart="105.00" departLane="n3ton4_0" departPos="5.10" departSpeed="0.00" departDelay="0.00" arrival="222.00" arrivalLane="n4ton0_0" arrivalPos="39.60" arrivalSpeed="13.45" duration="117.00" routeLength="83.13" waitingTime="101.00" waitingCount="1" stopTime="0.00" timeLoss="110.81" rerouteNo="0" devices="tripinfo_105" vType="DEFAULT_VEHTYPE" speedFactor="1.06" vaporized=""/>
    <tripinfo id="84" depart="179.00" departLane="n1ton4_0" departPos="5.10" departSpeed="0.00" departDelay="95.00" arrival="223.00" arrivalLane="n4ton3_0" arrivalPos="39.60" arrivalSpeed="15.94" duration="44.00" routeLength="94.90" waitingTime="26.00" waitingCount="1" stopTime="0.00" timeLoss="38.19" rerouteNo="0" devices="tripinfo_84" vType="DEFAULT_VEHTYPE" speedFactor="1.02" vaporized=""/>
    <tripinfo id="116" depart="116.00" departLane="n3ton4_0" departPos="5.10" departSpeed="0.00" departDelay="0.00" arrival="224.00" arrivalLane="n4ton1_0" arrivalPos="39.60" arrivalSpeed="15.42" duration="108.00" routeLength="94.90" waitingTime="91.00" waitingCount="1" stopTime="0.00" timeLoss="101.88" rerouteNo="0" devices="tripinfo_116" vType="DEFAULT_VEHTYPE" speedFactor="1.03" vaporized=""/>