<?xml version="1.0" encoding="UTF-8"?>

<!-- generated on Tue Apr 28 23:27:18 2020 by Eclipse SUMO GUI Version 1.5.0
<configuration xmlns:xsi="http://www.w3.org/2001/XMLSchema-instance" xsi:noNamespaceSchemaLocation="http://sumo.dlr.de/xsd/sumoConfiguration.xsd">

    <input>
        <net-file value="my_net.net.xml"/>
        <route-files value="my_route.rou.xml"/>
        <additional-files value="demo.add.xml"/>
    </input>

    <output>
        <tripinfo-output value="tripinfo.xml"/>
    </output>

    <time>
        <begin value="0"/>
        <end value="2000"/>
    </time>

    <traci_server>
        <remote-port value="59541"/>
    </traci_server>

</configuration>
-->

<tripinfos xmlns:xsi="http://www.w3.org/2001/XMLSchema-instance" xsi:noNamespaceSchemaLocation="http://sumo.dlr.de/xsd/tripinfo_file.xsd">
    <tripinfo id="2" depart="2.00" departLane="n3ton4_0" departPos="5.10" departSpeed="0.00" departDelay="0.00" arrival="14.00" arrivalLane="n4ton2_1" arrivalPos="39.60" arrivalSpeed="13.40" duration="12.00" routeLength="93.45" waitingTime="0.00" waitingCount="0" stopTime="0.00" timeLoss="4.49" rerouteNo="0" devices="tripinfo_2" vType="DEFAULT_VEHTYPE" speedFactor="0.94" vaporized=""/>
    <tripinfo id="7" depart="9.00" departLane="n3ton4_0" departPos="5.10" departSpeed="0.00" departDelay="2.00" arrival="21.00" arrivalLane="n4ton2_1" arrivalPos="39.60" arrivalSpeed="13.14" duration="12.00" routeLength="93.45" waitingTime="0.00" waitingCount="0" stopTime="0.00" timeLoss="3.64" rerouteNo="0" devices="tripinfo_7" vType="DEFAULT_VEHTYPE" speedFactor="0.83" vaporized=""/>
    <tripinfo id="14" depart="14.00" departLane="n3ton4_0" departPos="5.10" departSpeed="0.00" departDelay="0.00" arrival="26.00" arrivalLane="n4ton2_1" arrivalPos="39.60" arrivalSpeed="12.46" duration="12.00" routeLength="93.45" waitingTime="0.00" waitingCount="0" stopTime="0.00" timeLoss="3.77" rerouteNo="0" devices="tripinfo_14" vType="DEFAULT_VEHTYPE" speedFactor="0.86" vaporized=""/>
    <tripinfo id="17" depart="17.00" departLane="n1ton4_0" departPos="5.10" departSpeed="0.00" departDelay="0.00" arrival="29.00" arrivalLane="n4ton0_1" arrivalPos="39.60" arrivalSpeed="14.96" duration="12.00" routeLength="93.45" waitingTime="0.00" waitingCount="0" stopTime="0.00" timeLoss="4.60" rerouteNo="0" devices="tripinfo_17" vType="DEFAULT_VEHTYPE" speedFactor="1.03" vaporized=""/>
    <tripinfo id="22" depart="23.00" departLane="n3ton4_0" departPos="5.10" departSpeed="0.00" departDelay="1.00" arrival="36.00" arrivalLane="n4ton2_1" arrivalPos="39.60" arrivalSpeed="13.64" duration="13.00" routeLength="93.45" waitingTime="0.00" waitingCount="0" stopTime="0.00" timeLoss="4.67" rerouteNo="0" devices="tripinfo_22" vType="DEFAULT_VEHTYPE" speedFactor="0.88" vaporized=""/>
    <tripinfo id="23" depart="24.00" departLane="n3ton4_0" departPos="5.10" departSpeed="0.00" departDelay="1.00" arrival="38.00" arrivalLane="n4ton2_1" arrivalPos="39.60" arrivalSpeed="13.98" duration="14.00" routeLength="93.45" waitingTime="0.00" waitingCount="0" stopTime="0.00" timeLoss="6.37" rerouteNo="0" devices="tripinfo_23" vType="DEFAULT_VEHTYPE" speedFactor="0.94" vaporized=""/>
    <tripinfo id="29" depart="31.00" departLane="n3ton4_0" departPos="5.10" departSpeed="0.00" departDelay="2.00" arrival="43.00" arrivalLane="n4ton2_1" arrivalPos="39.60" arrivalSpeed="14.49" duration="12.00" routeLength="93.45" waitingTime="0.00" waitingCount="0" stopTime="0.00" timeLoss="4.42" rerouteNo="0" devices="tripinfo_29" vType="DEFAULT_VEHTYPE" speedFactor="0.98" vaporized=""/>
    <tripinfo id="3" depart="3.00" departLane="n3ton4_0" departPos="5.10" departSpeed="0.00" departDelay="0.00" arrival="49.00" arrivalLane="n4ton1_0" arrivalPos="39.60" arrivalSpeed="15.45" duration="46.00" routeLength="94.90" waitingTime="32.00" waitingCount="1" stopTime="0.00" timeLoss="40.05" rerouteNo="0" devices="tripinfo_3" vType="DEFAULT_VEHTYPE" speedFactor="1.01" vaporized=""/>
    <tripinfo id="4" depart="6.00" departLane="n3ton4_0" departPos="5.10" departSpeed="0.00" departDelay="2.00" arrival="52.00" arrivalLane="n4ton0_0" arrivalPos="39.60" arrivalSpeed="15.32" duration="46.00" routeLength="83.13" waitingTime="31.00" waitingCount="1" stopTime="0.00" timeLoss="39.61" rerouteNo="0" devices="tripinfo_4" vType="DEFAULT_VEHTYPE" speedFactor="1.08" vaporized=""/>
    <tripinfo id="18" depart="18.00" departLane="n1ton4_0" departPos="5.10" departSpeed="0.00" departDelay="0.00" arrival="52.00" arrivalLane="n4ton2_0" arrivalPos="39.60" arrivalSpeed="15.25" duration="34.00" routeLength="83.13" waitingTime="19.00" waitingCount="1" stopTime="0.00" timeLoss="27.44" rerouteNo="0" devices="tripinfo_18" vType="DEFAULT_VEHTYPE" speedFactor="1.05" vaporized=""/>
    <tripinfo id="20" depart="20.00" departLane="n3ton4_0" departPos="5.10" departSpeed="0.00" departDelay="0.00" arrival="54.00" arrivalLane="n4ton1_0" arrivalPos="39.60" arrivalSpeed="15.82" duration="34.00" routeLength="94.90" waitingTime="18.00" waitingCount="1" stopTime="0.00" timeLoss="27.21" rerouteNo="0" devices="tripinfo_20" vType="DEFAULT_VEHTYPE" speedFactor="0.99" vaporized=""/>
    <tripinfo id="28" depart="28.00" departLane="n3ton4_0" departPos="5.10" departSpeed="0.00" departDelay="0.00" arrival="56.00" arrivalLane="n4ton1_0" arrivalPos="39.60" arrivalSpeed="16.01" duration="28.00" routeLength="94.90" waitingTime="12.00" waitingCount="1" stopTime="0.00" timeLoss="21.17" rerouteNo="0" devices="tripinfo_28" vType="DEFAULT_VEHTYPE" speedFactor="1.01" vaporized=""/>
    <tripinfo id="44" depart="49.00" departLane="n1ton4_0" departPos="5.10" departSpeed="0.00" departDelay="5.00" arrival="60.00" arrivalLane="n4ton2_0" arrivalPos="39.60" arrivalSpeed="14.71" duration="11.00" routeLength="83.13" waitingTime="0.00" waitingCount="0" stopTime="0.00" timeLoss="5.29" rerouteNo="0" devices="tripinfo_44" vType="DEFAULT_VEHTYPE" speedFactor="1.15" vaporized=""/>
    <tripinfo id="53" depart="53.00" departLane="n3ton4_0" departPos="5.10" departSpeed="0.00" departDelay="0.00" arrival="63.00" arrivalLane="n4ton1_0" arrivalPos="39.60" arrivalSpeed="14.17" duration="10.00" routeLength="94.90" waitingTime="0.00" waitingCount="0" stopTime="0.00" timeLoss="3.36" rerouteNo="0" devices="tripinfo_53" vType="DEFAULT_VEHTYPE" speedFactor="0.90" vaporized=""/>
    <tripinfo id="54" depart="56.00" departLane="n3ton4_0" departPos="5.10" departSpeed="0.00" departDelay="2.00" arrival="66.00" arrivalLane="n4ton1_0" arrivalPos="39.60" arrivalSpeed="16.36" duration="10.00" routeLength="94.90" waitingTime="0.00" waitingCount="0" stopTime="0.00" timeLoss="3.56" rerouteNo="0" devices="tripinfo_54" vType="DEFAULT_VEHTYPE" speedFactor="1.03" vaporized=""/>
    <tripinfo id="56" depart="59.00" departLane="n3ton4_0" departPos="5.10" departSpeed="0.00" departDelay="3.00" arrival="68.00" arrivalLane="n4ton1_0" arrivalPos="39.60" arrivalSpeed="16.48" duration="9.00" routeLength="94.90" waitingTime="0.00" waitingCount="0" stopTime="0.00" timeLoss="3.56" rerouteNo="0" devices="tripinfo_56" vType="DEFAULT_VEHTYPE" speedFactor="1.09" vaporized=""/>
    <tripinfo id="57" depart="62.00" departLane="n3ton4_0" departPos="5.10" departSpeed="0.00" departDelay="5.00" arrival="74.00" arrivalLane="n4ton0_0" arrivalPos="39.60" arrivalSpeed="15.39" duration="12.00" routeLength="83.13" waitingTime="0.00" waitingCount="0" stopTime="0.00" timeLoss="4.99" rerouteNo="0" devices="tripinfo_57" vType="DEFAULT_VEHTYPE" speedFactor="1.04" vaporized=""/>
    <tripinfo id="62" depart="65.00" departLane="n3ton4_0" departPos="5.10" departSpeed="0.00" departDelay="3.00" arrival="75.00" arrivalLane="n4ton1_0" arrivalPos="39.60" arrivalSpeed="13.30" duration="10.00" routeLength="94.90" waitingTime="0.00" waitingCount="0" stopTime="0.00" timeLoss="3.39" rerouteNo="0" devices="tripinfo_62" vType="DEFAULT_VEHTYPE" speedFactor="0.90" vaporized=""/>
    <tripinfo id="66" depart="72.00" departLane="n3ton4_0" departPos="5.10" departSpeed="0.00" departDelay="6.00" arrival="85.00" arrivalLane="n4ton0_0" arrivalPos="39.60" arrivalSpeed="13.37" duration="13.00" routeLength="83.13" waitingTime="0.00" waitingCount="0" stopTime="0.00" timeLoss="5.35" rerouteNo="0" devices="tripinfo_66" vType="DEFAULT_VEHTYPE" speedFactor="0.85" vaporized=""/>
    <tripinfo id="71" depart="75.00" departLane="n3ton4_0" departPos="5.10" departSpeed="0.00" departDelay="4.00" arrival="87.00" arrivalLane="n4ton1_0" arrivalPos="39.60" arrivalSpeed="16.35" duration="12.00" routeLength="94.90" waitingTime="0.00" waitingCount="0" stopTime="0.00" timeLoss="6.24" rerouteNo="0" devices="tripinfo_71" vType="DEFAULT_VEHTYPE" speedFactor="1.10" vaporized=""/>
    <tripinfo id="5" depart="5.00" departLane="n2ton4_0" departPos="5.10" departSpeed="0.00" departDelay="0.00" arrival="92.00" arrivalLane="n4ton1_1" arrivalPos="39.60" arrivalSpeed="14.79" duration="87.00" routeLength="93.45" waitingTime="72.00" waitingCount="1" stopTime="0.00" timeLoss="80.16" rerouteNo="0" devices="tripinfo_5" vType="DEFAULT_VEHTYPE" speedFactor="1.03" vaporized=""/>
    <tripinfo id="19" depart="19.00" departLane="n2ton4_0" departPos="5.10" departSpeed="0.00" departDelay="0.00" arrival="94.00" arrivalLane="n4ton1_1" arrivalPos="39.60" arrivalSpeed="15.22" duration="75.00" routeLength="93.45" waitingTime="58.00" waitingCount="1" stopTime="0.00" timeLoss="68.54" rerouteNo="0" devices="tripinfo_19" vType="DEFAULT_VEHTYPE" speedFactor="1.12" vaporized=""/>
    <tripinfo id="25" depart="25.00" departLane="n2ton4_0" departPos="5.10" departSpeed="0.00" departDelay="0.00" arrival="96.00" arrivalLane="n4ton1_1" arrivalPos="39.60" arrivalSpeed="17.43" duration="71.00" routeLength="93.45" waitingTime="55.00" waitingCount="1" stopTime="0.00" timeLoss="64.54" rerouteNo="0" devices="tripinfo_25" vType="DEFAULT_VEHTYPE" speedFactor="1.16" vaporized=""/>
    <tripinfo id="8" depart="8.00" departLane="n1ton4_0" departPos="5.10" departSpeed="0.00" departDelay="0.00" arrival="112.00" arrivalLane="n4ton3_0" arrivalPos="39.60" arrivalSpeed="0.30" duration="104.00" routeLength="94.90" waitingTime="25.00" waitingCount="1" stopTime="0.00" timeLoss="98.33" rerouteNo="0" devices="tripinfo_8" vType="DEFAULT_VEHTYPE" speedFactor="1.05" vaporized=""/>
    <tripinfo id="1" depart="1.00" departLane="n0ton4_0" departPos="5.10" departSpeed="0.00" departDelay="0.00" arrival="134.00" arrivalLane="n4ton1_0" arrivalPos="39.60" arrivalSpeed="13.13" duration="133.00" routeLength="83.13" waitingTime="117.00" waitingCount="1" stopTime="0.00" timeLoss="127.35" rerouteNo="0" devices="tripinfo_1" vType="DEFAULT_VEHTYPE" speedFactor="1.06" vaporized=""/>
    <tripinfo id="9" depart="9.00" departLane="n0ton4_0" departPos="5.10" departSpeed="0.00" departDelay="0.00" arrival="137.00" arrivalLane="n4ton1_0" arrivalPos="39.60" arrivalSpeed="11.91" duration="128.00" routeLength="83.13" waitingTime="111.00" waitingCount="1" stopTime="0.00" timeLoss="120.89" rerouteNo="0" devices="tripinfo_9" vType="DEFAULT_VEHTYPE" speedFactor="0.89" vaporized=""/>
    <tripinfo id="30" depart="30.00" departLane="n0ton4_0" departPos="5.10" departSpeed="0.00" departDelay="0.00" arrival="139.00" arrivalLane="n4ton2_0" arrivalPos="39.60" arrivalSpeed="13.88" duration="109.00" routeLength="94.90" waitingTime="94.00" waitingCount="1" stopTime="0.00" timeLoss="101.70" rerouteNo="0" devices="tripinfo_30" vType="DEFAULT_VEHTYPE" speedFactor="0.89" vaporized=""/>
    <tripinfo id="36" depart="37.00" departLane="n0ton4_0" departPos="5.10" departSpeed="0.00" departDelay="1.00" arrival="142.00" arrivalLane="n4ton1_0" arrivalPos="39.60" arrivalSpeed="13.55" duration="105.00" routeLength="83.13" waitingTime="89.00" waitingCount="1" stopTime="0.00" timeLoss="97.74" rerouteNo="0" devices="tripinfo_36" vType="DEFAULT_VEHTYPE" speedFactor="0.92" vaporized=""/>
    <tripinfo id="26" depart="27.00" departLane="n1ton4_0" departPos="5.10" departSpeed="0.00" departDelay="1.00" arrival="143.00" arrivalLane="n4ton3_0" arrivalPos="39.60" arrivalSpeed="0.30" duration="116.00" routeLength="94.90" waitingTime="12.00" waitingCount="1" stopTime="0.00" timeLoss="110.16" rerouteNo="0" devices="tripinfo_26" vType="DEFAULT_VEHTYPE" speedFactor="1.02" vaporized=""/>
    <tripinfo id="60" depart="95.00" departLane="n0ton4_0" departPos="5.10" departSpeed="0.00" departDelay="35.00" arrival="144.00" arrivalLane="n4ton1_0" arrivalPos="39.60" arrivalSpeed="13.10" duration="49.00" routeLength="83.13" waitingTime="34.00" waitingCount="1" stopTime="0.00" timeLoss="42.54" rerouteNo="0" devices="tripinfo_60" vType="DEFAULT_VEHTYPE" speedFactor="1.00" vaporized=""/>
    <tripinfo id="78" depart="135.00" departLane="n0ton4_0" departPos="5.10" departSpeed="0.00" departDelay="57.00" arrival="146.00" arrivalLane="n4ton2_0" arrivalPos="39.60" arrivalSpeed="13.52" duration="11.00" routeLength="94.90" waitingTime="0.00" waitingCount="0" stopTime="0.00" timeLoss="3.50" rerouteNo="0" devices="tripinfo_78" vType="DEFAULT_VEHTYPE" speedFactor="0.90" vaporized=""/>
    <tripinfo id="24" depart="24.00" departLane="n1ton4_0" departPos="5.10" departSpeed="0.00" departDelay="0.00" arrival="149.00" arrivalLane="n4ton3_1" arrivalPos="39.60" arrivalSpeed="0.30" duration="125.00" routeLength="94.90" waitingTime="13.00" waitingCount="1" stopTime="0.00" timeLoss="118.66" rerouteNo="0" devices="tripinfo_24" vType="DEFAULT_VEHTYPE" speedFactor="0.94" vaporized=""/>
    <tripinfo id="111" depart="141.00" departLane="n0ton4_0" departPos="5.10" departSpeed="0.00" departDelay="30.00" arrival="151.00" arrivalLane="n4ton2_0" arrivalPos="39.60" arrivalSpeed="14.50" duration="10.00" routeLength="94.90" waitingTime="0.00" waitingCount="0" stopTime="0.00" timeLoss="3.71" rerouteNo="0" devices="tripinfo_111" vType="DEFAULT_VEHTYPE" speedFactor="0.97" vaporized=""/>
    <tripinfo id="58" depart="58.00" departLane="n1ton4_0" departPos="5.10" departSpeed="0.00" departDelay="0.00" arrival="152.00" arrivalLane="n4ton3_1" arrivalPos="39.60" arrivalSpeed="5.81" duration="94.00" routeLength="94.90" waitingTime="0.00" waitingCount="0" stopTime="0.00" timeLoss="88.08" rerouteNo="0" devices="tripinfo_58" vType="DEFAULT_VEHTYPE" speedFactor="1.04" vaporized=""/>
    <tripinfo id="32" depart="33.00" departLane="n0ton4_0" departPos="5.10" departSpeed="0.00" departDelay="1.00" arrival="154.00" arrivalLane="n4ton3_1" arrivalPos="39.60" arrivalSpeed="6.56" duration="121.00" routeLength="93.45" waitingTime="43.00" waitingCount="1" stopTime="0.00" timeLoss="112.72" rerouteNo="0" devices="tripinfo_32" vType="DEFAULT_VEHTYPE" speedFactor="0.83" vaporized=""/>
    <tripinfo id="40" depart="40.00" departLane="n0ton4_0" departPos="5.10" departSpeed="0.00" departDelay="0.00" arrival="156.00" arrivalLane="n4ton3_1" arrivalPos="39.60" arrivalSpeed="7.90" duration="116.00" routeLength="93.45" waitingTime="40.00" waitingCount="1" stopTime="0.00" timeLoss="109.82" rerouteNo="0" devices="tripinfo_40" vType="DEFAULT_VEHTYPE" speedFactor="1.13" vaporized=""/>
    <tripinfo id="112" depart="144.00" departLane="n0ton4_0" departPos="5.10" departSpeed="0.00" departDelay="32.00" arrival="156.00" arrivalLane="n4ton1_0" arrivalPos="39.60" arrivalSpeed="13.48" duration="12.00" routeLength="83.13" waitingTime="0.00" waitingCount="0" stopTime="0.00" timeLoss="5.96" rerouteNo="0" devices="tripinfo_112" vType="DEFAULT_VEHTYPE" speedFactor="1.15" vaporized=""/>
    <tripinfo id="113" depart="147.00" departLane="n0ton4_0" departPos="5.10" departSpeed="0.00" departDelay="34.00" arrival="157.00" arrivalLane="n4ton2_0" arrivalPos="39.60" arrivalSpeed="15.19" duration="10.00" routeLength="94.90" waitingTime="0.00" waitingCount="0" stopTime="0.00" timeLoss="3.86" rerouteNo="0" devices="tripinfo_113" vType="DEFAULT_VEHTYPE" speedFactor="0.98" vaporized=""/>
    <tripinfo id="49" depart="49.00" departLane="n0ton4_0" departPos="5.10" departSpeed="0.00" departDelay="0.00" arrival="158.00" arrivalLane="n4ton3_1" arrivalPos="39.60" arrivalSpeed="11.82" duration="109.00" routeLength="93.45" waitingTime="36.00" waitingCount="2" stopTime="0.00" timeLoss="101.81" rerouteNo="0" devices="tripinfo_49" vType="DEFAULT_VEHTYPE" speedFactor="0.97" vaporized=""/>
    <tripinfo id="12" depart="12.00" departLane="n2ton4_0" departPos="5.10" departSpeed="0.00" departDelay="0.00" arrival="159.00" arrivalLane="n4ton0_0" arrivalPos="39.60" arrivalSpeed="14.69" duration="147.00" routeLength="94.90" waitingTime="129.00" waitingCount="2" stopTime="0.00" timeLoss="140.40" rerouteNo="0" devices="tripinfo_12" vType="DEFAULT_VEHTYPE" speedFactor="0.94" vaporized=""/>
    <tripinfo id="50" depart="50.00" departLane="n0ton4_0" departPos="5.10" departSpeed="0.00" departDelay="0.00" arrival="160.00" arrivalLane="n4ton3_1" arrivalPos="39.60" arrivalSpeed="11.44" duration="110.00" routeLength="93.45" waitingTime="41.00" waitingCount="4" stopTime="0.00" timeLoss="104.05" rerouteNo="0" devices="tripinfo_50" vType="DEFAULT_VEHTYPE" speedFactor="1.18" vaporized=""/>
    <tripinfo id="16" depart="16.00" departLane="n2ton4_0" departPos="5.10" departSpeed="0.00" departDelay="0.00" arrival="163.00" arrivalLane="n4ton3_1" arrivalPos="39.60" arrivalSpeed="12.39" duration="147.00" routeLength="83.13" waitingTime="125.00" waitingCount="2" stopTime="0.00" timeLoss="141.38" rerouteNo="0" devices="tripinfo_16" vType="DEFAULT_VEHTYPE" speedFactor="1.09" vaporized=""/>
    <tripinfo id="38" depart="38.00" departLane="n1ton4_0" departPos="5.10" departSpeed="0.00" departDelay="0.00" arrival="173.00" arrivalLane="n4ton3_0" arrivalPos="39.60" arrivalSpeed="0.30" duration="135.00" routeLength="94.90" waitingTime="5.00" waitingCount="1" stopTime="0.00" timeLoss="128.74" rerouteNo="0" devices="tripinfo_38" vType="DEFAULT_VEHTYPE" speedFactor="0.95" vaporized=""/>
    <tripinfo id="46" depart="46.00" departLane="n2ton4_0" departPos="5.10" departSpeed="0.00" departDelay="0.00" arrival="176.00" arrivalLane="n4ton0_0" arrivalPos="39.60" arrivalSpeed="14.99" duration="130.00" routeLength="94.90" waitingTime="101.00" waitingCount="3" stopTime="0.00" timeLoss="124.63" rerouteNo="0" devices="tripinfo_46" vType="DEFAULT_VEHTYPE" speedFactor="1.17" vaporized=""/>
    <tripinfo id="45" depart="52.00" departLane="n1ton4_0" departPos="5.10" departSpeed="0.00" departDelay="7.00" arrival="178.00" arrivalLane="n4ton0_1" arrivalPos="39.60" arrivalSpeed="14.82" duration="126.00" routeLength="93.45" waitingTime="108.00" waitingCount="1" stopTime="0.00" timeLoss="118.56" rerouteNo="0" devices="tripinfo_45" vType="DEFAULT_VEHTYPE" speedFactor="1.01" vaporized=""/>
    <tripinfo id="69" depart="69.00" departLane="n1ton4_0" departPos="5.10" departSpeed="0.00" departDelay="0.00" arrival="179.00" arrivalLane="n4ton0_1" arrivalPos="39.60" arrivalSpeed="15.16" duration="110.00" routeLength="93.45" waitingTime="93.00" waitingCount="1" stopTime="0.00" timeLoss="103.96" rerouteNo="0" devices="tripinfo_69" vType="DEFAULT_VEHTYPE" speedFactor="1.17" vaporized=""/>
    <tripinfo id="52" depart="52.00" departLane="n3ton4_0" departPos="5.10" departSpeed="0.00" departDelay="0.00" arrival="181.00" arrivalLane="n4ton2_1" arrivalPos="39.60" arrivalSpeed="15.95" duration="129.00" routeLength="93.45" waitingTime="111.00" waitingCount="2" stopTime="0.00" timeLoss="122.40" rerouteNo="0" devices="tripinfo_52" vType="DEFAULT_VEHTYPE" speedFactor="1.10" vaporized=""/>
    <tripinfo id="84" depart="85.00" departLane="n1ton4_0" departPos="5.10" departSpeed="0.00" departDelay="1.00" arrival="182.00" arrivalLane="n4ton0_1" arrivalPos="39.60" arrivalSpeed="14.06" duration="97.00" routeLength="93.45" waitingTime="81.00" waitingCount="1" stopTime="0.00" timeLoss="90.98" rerouteNo="0" devices="tripinfo_84" vType="DEFAULT_VEHTYPE" speedFactor="1.12" vaporized=""/>
    <tripinfo id="64" depart="68.00" departLane="n3ton4_0" departPos="5.10" departSpeed="0.00" departDelay="4.00" arrival="184.00" arrivalLane="n4ton2_1" arrivalPos="39.60" arrivalSpeed="13.94" duration="116.00" routeLength="93.45" waitingTime="96.00" waitingCount="1" stopTime="0.00" timeLoss="107.79" rerouteNo="0" devices="tripinfo_64" vType="DEFAULT_VEHTYPE" speedFactor="0.88" vaporized=""/>
    <tripinfo id="70" depart="70.00" departLane="n1ton4_0" departPos="5.10" departSpeed="0.00" departDelay="0.00" arrival="184.00" arrivalLane="n4ton0_1" arrivalPos="39.60" arrivalSpeed="14.47" duration="114.00" routeLength="93.45" waitingTime="95.00" waitingCount="1" stopTime="0.00" timeLoss="107.48" rerouteNo="0" devices="tripinfo_70" vType="DEFAULT_VEHTYPE" speedFactor="1.02" vaporized=""/>
    <tripinfo id="65" depart="69.00" departLane="n3ton4_0" departPos="5.10" departSpeed="0.00" departDelay="4.00" arrival="186.00" arrivalLane="n4ton2_1" arrivalPos="39.60" arrivalSpeed="13.06" duration="117.00" routeLength="93.45" waitingTime="96.00" waitingCount="1" stopTime="0.00" timeLoss="108.89" rerouteNo="0" devices="tripinfo_65" vType="DEFAULT_VEHTYPE" speedFactor="0.85" vaporized=""/>
    <tripinfo id="79" depart="79.00" departLane="n1ton4_0" departPos="5.10" departSpeed="0.00" departDelay="0.00" arrival="186.00" arrivalLane="n4ton0_1" arrivalPos="39.60" arrivalSpeed="14.68" duration="107.00" routeLength="93.45" waitingTime="90.00" waitingCount="1" stopTime="0.00" timeLoss="101.09" rerouteNo="0" devices="tripinfo_79" vType="DEFAULT_VEHTYPE" speedFactor="1.14" vaporized=""/>
    <tripinfo id="94" depart="94.00" departLane="n1ton4_0" departPos="5.10" departSpeed="0.00" departDelay="0.00" arrival="189.00" arrivalLane="n4ton0_1" arrivalPos="39.60" arrivalSpeed="14.11" duration="95.00" routeLength="93.45" waitingTime="80.00" waitingCount="1" stopTime="0.00" timeLoss="87.54" rerouteNo="0" devices="tripinfo_94" vType="DEFAULT_VEHTYPE" speedFactor="0.97" vaporized=""/>
    <tripinfo id="98" depart="181.00" departLane="n1ton4_0" departPos="5.10" departSpeed="0.00" departDelay="83.00" arrival="194.00" arrivalLane="n4ton0_1" arrivalPos="39.60" arrivalSpeed="14.86" duration="13.00" routeLength="93.45" waitingTime="0.00" waitingCount="0" stopTime="0.00" timeLoss="5.33" rerouteNo="0" devices="tripinfo_98" vType="DEFAULT_VEHTYPE" speedFactor="0.98" vaporized=""/>
    <tripinfo id="82" depart="82.00" departLane="n1ton4_0" departPos="5.10" departSpeed="0.00" departDelay="0.00" arrival="219.00" arrivalLane="n4ton2_0" arrivalPos="39.60" arrivalSpeed="13.76" duration="137.00" routeLength="83.13" waitingTime="122.00" waitingCount="1" stopTime="0.00" timeLoss="131.44" rerouteNo="0" devices="tripinfo_82" vType="DEFAULT_VEHTYPE" speedFactor="1.08" vaporized=""/>
    <tripinfo id="80" depart="80.00" departLane="n3ton4_0" departPos="5.10" departSpeed="0.00" departDelay="0.00" arrival="220.00" arrivalLane="n4ton1_0" arrivalPos="39.60" arrivalSpeed="16.03" duration="140.00" routeLength="94.90" waitingTime="123.00" waitingCount="1" stopTime="0.00" timeLoss="133.30" rerouteNo="0" devices="tripinfo_80" vType="DEFAULT_VEHTYPE" speedFactor="1.02" vaporized=""/>
    <tripinfo id="81" depart="83.00" departLane="n3ton4_0" departPos="5.10" departSpeed="0.00" departDelay="2.00" arrival="221.00" arrivalLane="n4ton1_0" arrivalPos="39.60" arrivalSpeed="15.27" duration="138.00" routeLength="94.90" waitingTime="122.00" waitingCount="1" stopTime="0.00" timeLoss="131.80" rerouteNo="0" devices="tripinfo_81" vType="DEFAULT_VEHTYPE" speedFactor="0.97" vaporized=""/>
    <tripinfo id="34" depart="34.00" departLane="n0ton4_0" departPos="5.10" departSpeed="0.00" departDelay="0.00" arrival="222.00" arrivalLane="n4ton3_0" arrivalPos="39.60" arrivalSpeed="0.30" duration="188.00" routeLength="93.45" waitingTime="43.00" waitingCount="1" stopTime="0.00" timeLoss="180.16" rerouteNo="0" devices="tripinfo_34" vType="DEFAULT_VEHTYPE" speedFactor="0.87" vaporized=""/>
    <tripinfo id="90" depart="90.00" departLane="n1ton4_0" departPos="5.10" departSpeed="0.00" departDelay="0.00" arrival="222.00" arrivalLane="n4ton2_0" arrivalPos="39.60" arrivalSpeed="12.17" duration="132.00" routeLength="83.13" waitingTime="114.00" waitingCount="2" stopTime="0.00" timeLoss="125.08" rerouteNo="0" devices="tripinfo_90" vType="DEFAULT_VEHTYPE" speedFactor="0.91" vaporized=""/>
    <tripinfo id="85" depart="86.00" departLane="n3ton4_0" departPos="5.10" departSpeed="0.00" departDelay="1.00" arrival="223.00" arrivalLane="n4ton1_0" arrivalPos="39.60" arrivalSpeed="16.21" duration="137.00" routeLength="94.90" waitingTime="121.00" waitingCount="1" stopTime="0.00" timeLoss="130.80" rerouteNo="0" devices="tripinfo_85" vType="DEFAULT_VEHTYPE" speedFactor="1.02" vaporized=""/>
    <tripinfo id="87" depart="89.00" departLane="n3ton4_0" departPos="5.10" departSpeed="0.00" departDelay="2.00" arrival="225.00" arrivalLane="n4ton1_0" arrivalPos="39.60" arrivalSpeed="14.46" duration="136.00" routeLength="94.90" waitingTime="120.00" waitingCount="1" stopTime="0.00" timeLoss="129.13" rerouteNo="0" devices="tripinfo_87" vType="DEFAULT_VEHTYPE" speedFactor="0.94" vaporized=""/>
    <tripinfo id="88" depart="92.00" departLane="n3ton4_0" departPos="5.10" departSpeed="0.00" departDelay="4.00" arrival="227.00" arrivalLane="n4ton1_0" arrivalPos="39.60" arrivalSpeed="13.93" duration="135.00" routeLength="94.90" waitingTime="119.00" waitingCount="1" stopTime="0.00" timeLoss="127.68" rerouteNo="0" devices="tripinfo_88" vType="DEFAULT_VEHTYPE" speedFactor="0.88" vaporized=""/>
    <tripinfo id="108" depart="185.00" departLane="n1ton4_0" departPos="5.10" departSpeed="0.00" departDelay="77.00" arrival="228.00" arrivalLane="n4ton2_0" arrivalPos="39.60" arrivalSpeed="14.21" duration="43.00" routeLength="83.13" waitingTime="29.00" waitingCount="1" stopTime="0.00" timeLoss="37.00" rerouteNo="0" devices="tripinfo_108" vType="DEFAULT_VEHTYPE" speedFactor="1.03" vaporized=""/>
    <tripinfo id="91" depart="219.00" departLane="n3ton4_0" departPos="5.10" departSpeed="0.00" departDelay="128.00" arrival="231.00" arrivalLane="n4ton0_0" arrivalPos="39.60" arrivalSpeed="14.56" duration="12.00" routeLength="83.13" waitingTime="0.00" waitingCount="0" stopTime="0.00" timeLoss="5.42" rerouteNo="0" devices="tripinfo_91" vType="DEFAULT_VEHTYPE" speedFactor="1.04" vaporized=""/>
    <tripinfo id="97" depart="223.00" departLane="n3ton4_0" departPos="5.10" departSpeed="0.00" departDelay="126.00" arrival="233.00" arrivalLane="n4ton1_0" arrivalPos="39.60" arrivalSpeed="14.91" duration="10.00" routeLength="94.90" waitingTime="0.00" waitingCount="0" stopTime="0.00" timeLoss="3.59" rerouteNo="0" devices="tripinfo_97" vType="DEFAULT_VEHTYPE" speedFactor="0.96" vaporized=""/>
    <tripinfo id="122" depart="220.00" departLane="n1ton4_0" departPos="5.10" departSpeed="0.00" departDelay="98.00" arrival="233.00" arrivalLane="n4ton2_0" arrivalPos="39.60" arrivalSpeed="11.79" duration="13.00" routeLength="83.13" waitingTime="0.00" waitingCount="0" stopTime="0.00" timeLoss="5.69" rerouteNo="0" devices="tripinfo_122" vType="DEFAULT_VEHTYPE" speedFactor="0.83" vaporized=""/>
    <tripinfo id="143" depart="224.00" departLane="n1ton4_0" departPos="5.10" departSpeed="0.00" departDelay="81.00" arrival="236.00" arrivalLane="n4ton2_0" arrivalPos="39.60" arrivalSpeed="16.21" duration="12.00" routeLength="83.13" waitingTime="0.00" waitingCount="0" stopTime="0.00" timeLoss="5.52" rerouteNo="0" devices="tripinfo_143" vType="DEFAULT_VEHTYPE" speedFactor="1.01" vaporized=""/>
    <tripinfo id="109" depart="227.00" departLane="n3ton4_0" departPos="5.10" departSpeed="0.00" departDelay="118.00" arrival="237.00" arrivalLane="n4ton1_0" arrivalPos="39.60" arrivalSpeed="15.75" duration="10.00" routeLength="94.90" waitingTime="0.00" waitingCount="0" stopTime="0.00" timeLoss="3.82" rerouteNo="0" devices="tripinfo_109" vType="DEFAULT_VEHTYPE" speedFactor="1.00" vaporized=""/>
    <tripinfo id="146" depart="228.00" departLane="n1ton4_0" departPos="5.10" departSpeed="0.00" departDelay="82.00" arrival="240.00" arrivalLane="n4ton2_0" arrivalPos="39.60" arrivalSpeed="15.14" duration="12.00" routeLength="83.13" waitingTime="0.00" waitingCount="0" stopTime="0.00" timeLoss="5.33" rerouteNo="0" devices="tripinfo_146" vType="DEFAULT_VEHTYPE" speedFactor="1.06" vaporized=""/>
    <tripinfo id="42" depart="42.00" departLane="n0ton4_0" departPos="5.10" departSpeed="0.00" departDelay="0.00" arrival="254.00" arrivalLane="n4ton3_1" arrivalPos="39.60" arrivalSpeed="0.30" duration="212.00" routeLength="93.45" waitingTime="38.00" waitingCount="1" stopTime="0.00" timeLoss="204.75" rerouteNo="0" devices="tripinfo_42" vType="DEFAULT_VEHTYPE" speedFactor="0.93" vaporized=""/>
    <tripinfo id="21" depart="21.00" departLane="n2ton4_0" departPos="5.10" departSpeed="0.00" departDelay="0.00" arrival="282.00" arrivalLane="n4ton3_1" arrivalPos="39.60" arrivalSpeed="0.30" duration="261.00" routeLength="83.13" waitingTime="121.00" waitingCount="2" stopTime="0.00" timeLoss="254.73" rerouteNo="0" devices="tripinfo_21" vType="DEFAULT_VEHTYPE" speedFactor="0.93" vaporized=""/>
    <tripinfo id="43" depart="43.00" departLane="n2ton4_0" departPos="5.10" departSpeed="0.00" departDelay="0.00" arrival="285.00" arrivalLane="n4ton3_0" arrivalPos="39.60" arrivalSpeed="0.30" duration="242.00" routeLength="83.13" waitingTime="99.00" waitingCount="2" stopTime="0.00" timeLoss="236.82" rerouteNo="0" devices="tripinfo_43" vType="DEFAULT_VEHTYPE" speedFactor="1.18" vaporized=""/>
    <tripinfo id="127" depart="153.00" departLane="n0ton4_0" departPos="5.10" departSpeed="0.00" departDelay="26.00" arrival="305.00" arrivalLane="n4ton2_0" arrivalPos="39.60" arrivalSpeed="14.94" duration="152.00" routeLength="94.90" waitingTime="135.00" waitingCount="2" stopTime="0.00" timeLoss="145.91" rerouteNo="0" devices="tripinfo_127" vType="DEFAULT_VEHTYPE" speedFactor="1.01" vaporized=""/>