<?xml version="1.0" encoding="UTF-8"?>

<!-- generated on Tue Apr 28 23:29:12 2020 by Eclipse SUMO GUI Version 1.5.0
<configuration xmlns:xsi="http://www.w3.org/2001/XMLSchema-instance" xsi:noNamespaceSchemaLocation="http://sumo.dlr.de/xsd/sumoConfiguration.xsd">

    <input>
        <net-file value="my_net.net.xml"/>
        <route-files value="my_route.rou.xml"/>
        <additional-files value="demo.add.xml"/>
    </input>

    <output>
        <tripinfo-output value="tripinfo.xml"/>
    </output>

    <time>
        <begin value="0"/>
        <end value="2000"/>
    </time>

    <traci_server>
        <remote-port value="59552"/>
    </traci_server>

</configuration>
-->

<tripinfos xmlns:xsi="http://www.w3.org/2001/XMLSchema-instance" xsi:noNamespaceSchemaLocation="http://sumo.dlr.de/xsd/tripinfo_file.xsd">
    <tripinfo id="2" depart="4.00" departLane="n1ton4_0" departPos="5.10" departSpeed="0.00" departDelay="2.00" arrival="15.00" arrivalLane="n4ton0_1" arrivalPos="39.60" arrivalSpeed="14.63" duration="11.00" routeLength="93.45" waitingTime="0.00" waitingCount="0" stopTime="0.00" timeLoss="4.47" rerouteNo="0" devices="tripinfo_2" vType="DEFAULT_VEHTYPE" speedFactor="1.01" vaporized=""/>
    <tripinfo id="4" depart="5.00" departLane="n1ton4_0" departPos="5.10" departSpeed="0.00" departDelay="1.00" arrival="18.00" arrivalLane="n4ton0_1" arrivalPos="39.60" arrivalSpeed="13.62" duration="13.00" routeLength="93.45" waitingTime="0.00" waitingCount="0" stopTime="0.00" timeLoss="6.50" rerouteNo="0" devices="tripinfo_4" vType="DEFAULT_VEHTYPE" speedFactor="1.03" vaporized=""/>
    <tripinfo id="10" depart="10.00" departLane="n3ton4_0" departPos="5.10" departSpeed="0.00" departDelay="0.00" arrival="23.00" arrivalLane="n4ton2_1" arrivalPos="39.60" arrivalSpeed="13.00" duration="13.00" routeLength="93.45" waitingTime="0.00" waitingCount="0" stopTime="0.00" timeLoss="4.67" rerouteNo="0" devices="tripinfo_10" vType="DEFAULT_VEHTYPE" speedFactor="0.86" vaporized=""/>
    <tripinfo id="13" depart="13.00" departLane="n1ton4_0" departPos="5.10" departSpeed="0.00" departDelay="0.00" arrival="25.00" arrivalLane="n4ton0_1" arrivalPos="39.60" arrivalSpeed="15.95" duration="12.00" routeLength="93.45" waitingTime="0.00" waitingCount="0" stopTime="0.00" timeLoss="4.64" rerouteNo="0" devices="tripinfo_13" vType="DEFAULT_VEHTYPE" speedFactor="1.03" vaporized=""/>
    <tripinfo id="18" depart="18.00" departLane="n1ton4_0" departPos="5.10" departSpeed="0.00" departDelay="0.00" arrival="30.00" arrivalLane="n4ton0_1" arrivalPos="39.60" arrivalSpeed="13.99" duration="12.00" routeLength="93.45" waitingTime="0.00" waitingCount="0" stopTime="0.00" timeLoss="4.26" rerouteNo="0" devices="tripinfo_18" vType="DEFAULT_VEHTYPE" speedFactor="0.93" vaporized=""/>
    <tripinfo id="25" depart="25.00" departLane="n1ton4_0" departPos="5.10" departSpeed="0.00" departDelay="0.00" arrival="37.00" arrivalLane="n4ton0_1" arrivalPos="39.60" arrivalSpeed="14.68" duration="12.00" routeLength="93.45" waitingTime="0.00" waitingCount="0" stopTime="0.00" timeLoss="4.45" rerouteNo="0" devices="tripinfo_25" vType="DEFAULT_VEHTYPE" speedFactor="0.98" vaporized=""/>
    <tripinfo id="1" depart="1.00" departLane="n1ton4_0" departPos="5.10" departSpeed="0.00" departDelay="0.00" arrival="50.00" arrivalLane="n4ton2_0" arrivalPos="39.60" arrivalSpeed="14.70" duration="49.00" routeLength="83.13" waitingTime="33.00" waitingCount="1" stopTime="0.00" timeLoss="41.78" rerouteNo="0" devices="tripinfo_1" vType="DEFAULT_VEHTYPE" speedFactor="0.94" vaporized=""/>
    <tripinfo id="5" depart="5.00" departLane="n3ton4_0" departPos="5.10" departSpeed="0.00" departDelay="0.00" arrival="50.00" arrivalLane="n4ton0_0" arrivalPos="39.60" arrivalSpeed="13.13" duration="45.00" routeLength="83.13" waitingTime="30.00" waitingCount="1" stopTime="0.00" timeLoss="37.28" rerouteNo="0" devices="tripinfo_5" vType="DEFAULT_VEHTYPE" speedFactor="0.83" vaporized=""/>
    <tripinfo id="16" depart="16.00" departLane="n3ton4_0" departPos="5.10" departSpeed="0.00" departDelay="0.00" arrival="52.00" arrivalLane="n4ton1_0" arrivalPos="39.60" arrivalSpeed="17.55" duration="36.00" routeLength="94.90" waitingTime="21.00" waitingCount="1" stopTime="0.00" timeLoss="29.98" rerouteNo="0" devices="tripinfo_16" vType="DEFAULT_VEHTYPE" speedFactor="1.12" vaporized=""/>
    <tripinfo id="24" depart="24.00" departLane="n3ton4_0" departPos="5.10" departSpeed="0.00" departDelay="0.00" arrival="54.00" arrivalLane="n4ton1_0" arrivalPos="39.60" arrivalSpeed="16.12" duration="30.00" routeLength="94.90" waitingTime="14.00" waitingCount="1" stopTime="0.00" timeLoss="23.63" rerouteNo="0" devices="tripinfo_24" vType="DEFAULT_VEHTYPE" speedFactor="1.01" vaporized=""/>
    <tripinfo id="28" depart="28.00" departLane="n1ton4_0" departPos="5.10" departSpeed="0.00" departDelay="0.00" arrival="55.00" arrivalLane="n4ton2_0" arrivalPos="39.60" arrivalSpeed="12.16" duration="27.00" routeLength="83.13" waitingTime="10.00" waitingCount="1" stopTime="0.00" timeLoss="19.86" rerouteNo="0" devices="tripinfo_28" vType="DEFAULT_VEHTYPE" speedFactor="0.87" vaporized=""/>
    <tripinfo id="32" depart="32.00" departLane="n3ton4_0" departPos="5.10" departSpeed="0.00" departDelay="0.00" arrival="56.00" arrivalLane="n4ton1_0" arrivalPos="39.60" arrivalSpeed="17.95" duration="24.00" routeLength="94.90" waitingTime="9.00" waitingCount="1" stopTime="0.00" timeLoss="17.96" rerouteNo="0" devices="tripinfo_32" vType="DEFAULT_VEHTYPE" speedFactor="1.13" vaporized=""/>
    <tripinfo id="37" depart="37.00" departLane="n1ton4_0" departPos="5.10" departSpeed="0.00" departDelay="0.00" arrival="58.00" arrivalLane="n4ton2_0" arrivalPos="39.60" arrivalSpeed="14.44" duration="21.00" routeLength="83.13" waitingTime="4.00" waitingCount="1" stopTime="0.00" timeLoss="14.94" rerouteNo="0" devices="tripinfo_37" vType="DEFAULT_VEHTYPE" speedFactor="1.15" vaporized=""/>
    <tripinfo id="51" depart="51.00" departLane="n3ton4_0" departPos="5.10" departSpeed="0.00" departDelay="0.00" arrival="61.00" arrivalLane="n4ton1_0" arrivalPos="39.60" arrivalSpeed="14.70" duration="10.00" routeLength="94.90" waitingTime="0.00" waitingCount="0" stopTime="0.00" timeLoss="3.24" rerouteNo="0" devices="tripinfo_51" vType="DEFAULT_VEHTYPE" speedFactor="0.96" vaporized=""/>
    <tripinfo id="39" depart="49.00" departLane="n1ton4_0" departPos="5.10" departSpeed="0.00" departDelay="10.00" arrival="62.00" arrivalLane="n4ton2_0" arrivalPos="39.60" arrivalSpeed="14.52" duration="13.00" routeLength="83.13" waitingTime="1.00" waitingCount="1" stopTime="0.00" timeLoss="7.44" rerouteNo="0" devices="tripinfo_39" vType="DEFAULT_VEHTYPE" speedFactor="1.17" vaporized=""/>
    <tripinfo id="56" depart="56.00" departLane="n3ton4_0" departPos="5.10" departSpeed="0.00" departDelay="0.00" arrival="66.00" arrivalLane="n4ton1_0" arrivalPos="39.60" arrivalSpeed="17.28" duration="10.00" routeLength="94.90" waitingTime="0.00" waitingCount="0" stopTime="0.00" timeLoss="4.02" rerouteNo="0" devices="tripinfo_56" vType="DEFAULT_VEHTYPE" speedFactor="1.09" vaporized=""/>
    <tripinfo id="57" depart="57.00" departLane="n1ton4_0" departPos="5.10" departSpeed="0.00" departDelay="0.00" arrival="69.00" arrivalLane="n4ton2_0" arrivalPos="39.60" arrivalSpeed="14.53" duration="12.00" routeLength="83.13" waitingTime="0.00" waitingCount="0" stopTime="0.00" timeLoss="5.70" rerouteNo="0" devices="tripinfo_57" vType="DEFAULT_VEHTYPE" speedFactor="1.00" vaporized=""/>
    <tripinfo id="73" depart="73.00" departLane="n1ton4_0" departPos="5.10" departSpeed="0.00" departDelay="0.00" arrival="84.00" arrivalLane="n4ton2_0" arrivalPos="39.60" arrivalSpeed="13.94" duration="11.00" routeLength="83.13" waitingTime="0.00" waitingCount="0" stopTime="0.00" timeLoss="5.45" rerouteNo="0" devices="tripinfo_73" vType="DEFAULT_VEHTYPE" speedFactor="1.14" vaporized=""/>
    <tripinfo id="9" depart="11.00" departLane="n2ton4_0" departPos="5.10" departSpeed="0.00" departDelay="2.00" arrival="92.00" arrivalLane="n4ton1_1" arrivalPos="39.60" arrivalSpeed="13.93" duration="81.00" routeLength="93.45" waitingTime="65.00" waitingCount="1" stopTime="0.00" timeLoss="73.90" rerouteNo="0" devices="tripinfo_9" vType="DEFAULT_VEHTYPE" speedFactor="0.94" vaporized=""/>
    <tripinfo id="0" depart="0.00" departLane="n0ton4_0" departPos="5.10" departSpeed="0.00" departDelay="0.00" arrival="134.00" arrivalLane="n4ton1_0" arrivalPos="39.60" arrivalSpeed="13.45" duration="134.00" routeLength="83.13" waitingTime="118.00" waitingCount="1" stopTime="0.00" timeLoss="128.19" rerouteNo="0" devices="tripinfo_0" vType="DEFAULT_VEHTYPE" speedFactor="1.06" vaporized=""/>
    <tripinfo id="3" depart="3.00" departLane="n2ton4_0" departPos="5.10" departSpeed="0.00" departDelay="0.00" arrival="135.00" arrivalLane="n4ton0_0" arrivalPos="39.60" arrivalSpeed="15.11" duration="132.00" routeLength="94.90" waitingTime="117.00" waitingCount="1" stopTime="0.00" timeLoss="126.21" rerouteNo="0" devices="tripinfo_3" vType="DEFAULT_VEHTYPE" speedFactor="1.08" vaporized=""/>
    <tripinfo id="23" depart="23.00" departLane="n0ton4_0" departPos="5.10" departSpeed="0.00" departDelay="0.00" arrival="136.00" arrivalLane="n4ton2_0" arrivalPos="39.60" arrivalSpeed="15.34" duration="113.00" routeLength="94.90" waitingTime="99.00" waitingCount="1" stopTime="0.00" timeLoss="107.11" rerouteNo="0" devices="tripinfo_23" vType="DEFAULT_VEHTYPE" speedFactor="1.02" vaporized=""/>
    <tripinfo id="8" depart="8.00" departLane="n2ton4_0" departPos="5.10" departSpeed="0.00" departDelay="0.00" arrival="137.00" arrivalLane="n4ton0_0" arrivalPos="39.60" arrivalSpeed="13.89" duration="129.00" routeLength="94.90" waitingTime="113.00" waitingCount="1" stopTime="0.00" timeLoss="121.90" rerouteNo="0" devices="tripinfo_8" vType="DEFAULT_VEHTYPE" speedFactor="0.89" vaporized=""/>
    <tripinfo id="26" depart="26.00" departLane="n0ton4_0" departPos="5.10" departSpeed="0.00" departDelay="0.00" arrival="139.00" arrivalLane="n4ton2_0" arrivalPos="39.60" arrivalSpeed="13.34" duration="113.00" routeLength="94.90" waitingTime="97.00" waitingCount="1" stopTime="0.00" timeLoss="105.79" rerouteNo="0" devices="tripinfo_26" vType="DEFAULT_VEHTYPE" speedFactor="0.89" vaporized=""/>
    <tripinfo id="14" depart="15.00" departLane="n2ton4_0" departPos="5.10" departSpeed="0.00" departDelay="1.00" arrival="141.00" arrivalLane="n4ton0_0" arrivalPos="39.60" arrivalSpeed="15.78" duration="126.00" routeLength="94.90" waitingTime="109.00" waitingCount="1" stopTime="0.00" timeLoss="119.54" rerouteNo="0" devices="tripinfo_14" vType="DEFAULT_VEHTYPE" speedFactor="1.05" vaporized=""/>
    <tripinfo id="33" depart="33.00" departLane="n0ton4_0" departPos="5.10" departSpeed="0.00" departDelay="0.00" arrival="141.00" arrivalLane="n4ton1_0" arrivalPos="39.60" arrivalSpeed="13.96" duration="108.00" routeLength="83.13" waitingTime="91.00" waitingCount="1" stopTime="0.00" timeLoss="101.38" rerouteNo="0" devices="tripinfo_33" vType="DEFAULT_VEHTYPE" speedFactor="0.93" vaporized=""/>
    <tripinfo id="17" depart="18.00" departLane="n2ton4_0" departPos="5.10" departSpeed="0.00" departDelay="1.00" arrival="143.00" arrivalLane="n4ton0_0" arrivalPos="39.60" arrivalSpeed="15.57" duration="125.00" routeLength="94.90" waitingTime="109.00" waitingCount="1" stopTime="0.00" timeLoss="118.24" rerouteNo="0" devices="tripinfo_17" vType="DEFAULT_VEHTYPE" speedFactor="0.99" vaporized=""/>
    <tripinfo id="40" depart="40.00" departLane="n0ton4_0" departPos="5.10" departSpeed="0.00" departDelay="0.00" arrival="144.00" arrivalLane="n4ton1_0" arrivalPos="39.60" arrivalSpeed="13.66" duration="104.00" routeLength="83.13" waitingTime="87.00" waitingCount="1" stopTime="0.00" timeLoss="97.27" rerouteNo="0" devices="tripinfo_40" vType="DEFAULT_VEHTYPE" speedFactor="0.99" vaporized=""/>
    <tripinfo id="20" depart="135.00" departLane="n2ton4_0" departPos="5.10" departSpeed="0.00" departDelay="115.00" arrival="145.00" arrivalLane="n4ton0_0" arrivalPos="39.60" arrivalSpeed="14.20" duration="10.00" routeLength="94.90" waitingTime="0.00" waitingCount="0" stopTime="0.00" timeLoss="3.58" rerouteNo="0" devices="tripinfo_20" vType="DEFAULT_VEHTYPE" speedFactor="0.94" vaporized=""/>
    <tripinfo id="6" depart="8.00" departLane="n1ton4_0" departPos="5.10" departSpeed="0.00" departDelay="2.00" arrival="146.00" arrivalLane="n4ton3_0" arrivalPos="39.60" arrivalSpeed="0.30" duration="138.00" routeLength="94.90" waitingTime="29.00" waitingCount="1" stopTime="0.00" timeLoss="132.32" rerouteNo="0" devices="tripinfo_6" vType="DEFAULT_VEHTYPE" speedFactor="1.05" vaporized=""/>
    <tripinfo id="43" depart="134.00" departLane="n0ton4_0" departPos="5.10" departSpeed="0.00" departDelay="91.00" arrival="146.00" arrivalLane="n4ton2_0" arrivalPos="39.60" arrivalSpeed="14.34" duration="12.00" routeLength="94.90" waitingTime="0.00" waitingCount="0" stopTime="0.00" timeLoss="5.02" rerouteNo="0" devices="tripinfo_43" vType="DEFAULT_VEHTYPE" speedFactor="0.97" vaporized=""/>
    <tripinfo id="45" depart="137.00" departLane="n0ton4_0" departPos="5.10" departSpeed="0.00" departDelay="92.00" arrival="147.00" arrivalLane="n4ton2_0" arrivalPos="39.60" arrivalSpeed="16.97" duration="10.00" routeLength="94.90" waitingTime="0.00" waitingCount="0" stopTime="0.00" timeLoss="4.71" rerouteNo="0" devices="tripinfo_45" vType="DEFAULT_VEHTYPE" speedFactor="1.18" vaporized=""/>
    <tripinfo id="21" depart="138.00" departLane="n2ton4_0" departPos="5.10" departSpeed="0.00" departDelay="117.00" arrival="148.00" arrivalLane="n4ton0_0" arrivalPos="39.60" arrivalSpeed="14.36" duration="10.00" routeLength="94.90" waitingTime="0.00" waitingCount="0" stopTime="0.00" timeLoss="3.58" rerouteNo="0" devices="tripinfo_21" vType="DEFAULT_VEHTYPE" speedFactor="0.94" vaporized=""/>
    <tripinfo id="22" depart="141.00" departLane="n2ton4_0" departPos="5.10" departSpeed="0.00" departDelay="119.00" arrival="151.00" arrivalLane="n4ton0_0" arrivalPos="39.60" arrivalSpeed="17.41" duration="10.00" routeLength="94.90" waitingTime="0.00" waitingCount="0" stopTime="0.00" timeLoss="4.23" rerouteNo="0" devices="tripinfo_22" vType="DEFAULT_VEHTYPE" speedFactor="1.16" vaporized=""/>
    <tripinfo id="52" depart="140.00" departLane="n0ton4_0" departPos="5.10" departSpeed="0.00" departDelay="88.00" arrival="152.00" arrivalLane="n4ton1_0" arrivalPos="39.60" arrivalSpeed="12.71" duration="12.00" routeLength="83.13" waitingTime="0.00" waitingCount="0" stopTime="0.00" timeLoss="5.92" rerouteNo="0" devices="tripinfo_52" vType="DEFAULT_VEHTYPE" speedFactor="1.09" vaporized=""/>
    <tripinfo id="58" depart="143.00" departLane="n0ton4_0" departPos="5.10" departSpeed="0.00" departDelay="85.00" arrival="155.00" arrivalLane="n4ton1_0" arrivalPos="39.60" arrivalSpeed="13.69" duration="12.00" routeLength="83.13" waitingTime="0.00" waitingCount="0" stopTime="0.00" timeLoss="5.53" rerouteNo="0" devices="tripinfo_58" vType="DEFAULT_VEHTYPE" speedFactor="0.90" vaporized=""/>
    <tripinfo id="36" depart="148.00" departLane="n2ton4_0" departPos="5.10" departSpeed="0.00" departDelay="112.00" arrival="158.00" arrivalLane="n4ton0_0" arrivalPos="39.60" arrivalSpeed="17.99" duration="10.00" routeLength="94.90" waitingTime="0.00" waitingCount="0" stopTime="0.00" timeLoss="4.40" rerouteNo="0" devices="tripinfo_36" vType="DEFAULT_VEHTYPE" speedFactor="1.18" vaporized=""/>
    <tripinfo id="41" depart="151.00" departLane="n2ton4_0" departPos="5.10" departSpeed="0.00" departDelay="110.00" arrival="161.00" arrivalLane="n4ton0_0" arrivalPos="39.60" arrivalSpeed="15.93" duration="10.00" routeLength="94.90" waitingTime="0.00" waitingCount="0" stopTime="0.00" timeLoss="3.97" rerouteNo="0" devices="tripinfo_41" vType="DEFAULT_VEHTYPE" speedFactor="1.02" vaporized=""/>
    <tripinfo id="64" depart="150.00" departLane="n0ton4_0" departPos="5.10" departSpeed="0.00" departDelay="86.00" arrival="161.00" arrivalLane="n4ton1_0" arrivalPos="39.60" arrivalSpeed="13.48" duration="11.00" routeLength="83.13" waitingTime="0.00" waitingCount="0" stopTime="0.00" timeLoss="5.81" rerouteNo="0" devices="tripinfo_64" vType="DEFAULT_VEHTYPE" speedFactor="1.17" vaporized=""/>
    <tripinfo id="67" depart="153.00" departLane="n0ton4_0" departPos="5.10" departSpeed="0.00" departDelay="86.00" arrival="163.00" arrivalLane="n4ton2_0" arrivalPos="39.60" arrivalSpeed="16.02" duration="10.00" routeLength="94.90" waitingTime="0.00" waitingCount="0" stopTime="0.00" timeLoss="3.41" rerouteNo="0" devices="tripinfo_67" vType="DEFAULT_VEHTYPE" speedFactor="1.00" vaporized=""/>
    <tripinfo id="53" depart="154.00" departLane="n2ton4_0" departPos="5.10" departSpeed="0.00" departDelay="101.00" arrival="164.00" arrivalLane="n4ton0_0" arrivalPos="39.60" arrivalSpeed="16.38" duration="10.00" routeLength="94.90" waitingTime="0.00" waitingCount="0" stopTime="0.00" timeLoss="4.18" rerouteNo="0" devices="tripinfo_53" vType="DEFAULT_VEHTYPE" speedFactor="1.04" vaporized=""/>
    <tripinfo id="54" depart="157.00" departLane="n2ton4_0" departPos="5.10" departSpeed="0.00" departDelay="103.00" arrival="167.00" arrivalLane="n4ton0_0" arrivalPos="39.60" arrivalSpeed="15.66" duration="10.00" routeLength="94.90" waitingTime="0.00" waitingCount="0" stopTime="0.00" timeLoss="4.27" rerouteNo="0" devices="tripinfo_54" vType="DEFAULT_VEHTYPE" speedFactor="1.04" vaporized=""/>
    <tripinfo id="78" depart="156.00" departLane="n0ton4_0" departPos="5.10" departSpeed="0.00" departDelay="78.00" arrival="168.00" arrivalLane="n4ton1_0" arrivalPos="39.60" arrivalSpeed="11.78" duration="12.00" routeLength="83.13" waitingTime="0.00" waitingCount="0" stopTime="0.00" timeLoss="5.41" rerouteNo="0" devices="tripinfo_78" vType="DEFAULT_VEHTYPE" speedFactor="0.97" vaporized=""/>
    <tripinfo id="84" depart="159.00" departLane="n0ton4_0" departPos="5.10" departSpeed="0.00" departDelay="75.00" arrival="170.00" arrivalLane="n4ton1_0" arrivalPos="39.60" arrivalSpeed="14.46" duration="11.00" routeLength="83.13" waitingTime="0.00" waitingCount="0" stopTime="0.00" timeLoss="4.92" rerouteNo="0" devices="tripinfo_84" vType="DEFAULT_VEHTYPE" speedFactor="1.02" vaporized=""/>
    <tripinfo id="63" depart="160.00" departLane="n2ton4_0" departPos="5.10" departSpeed="0.00" departDelay="97.00" arrival="171.00" arrivalLane="n4ton0_0" arrivalPos="39.60" arrivalSpeed="12.70" duration="11.00" routeLength="94.90" waitingTime="0.00" waitingCount="0" stopTime="0.00" timeLoss="3.54" rerouteNo="0" devices="tripinfo_63" vType="DEFAULT_VEHTYPE" speedFactor="0.85" vaporized=""/>
    <tripinfo id="86" depart="162.00" departLane="n0ton4_0" departPos="5.10" departSpeed="0.00" departDelay="76.00" arrival="172.00" arrivalLane="n4ton2_0" arrivalPos="39.60" arrivalSpeed="15.59" duration="10.00" routeLength="94.90" waitingTime="0.00" waitingCount="0" stopTime="0.00" timeLoss="3.55" rerouteNo="0" devices="tripinfo_86" vType="DEFAULT_VEHTYPE" speedFactor="0.99" vaporized=""/>
    <tripinfo id="38" depart="40.00" departLane="n1ton4_0" departPos="5.10" departSpeed="0.00" departDelay="2.00" arrival="175.00" arrivalLane="n4ton3_1" arrivalPos="39.60" arrivalSpeed="0.30" duration="135.00" routeLength="94.90" waitingTime="2.00" waitingCount="1" stopTime="0.00" timeLoss="129.09" rerouteNo="0" devices="tripinfo_38" vType="DEFAULT_VEHTYPE" speedFactor="1.01" vaporized=""/>
    <tripinfo id="46" depart="46.00" departLane="n3ton4_0" departPos="5.10" departSpeed="0.00" departDelay="0.00" arrival="177.00" arrivalLane="n4ton2_1" arrivalPos="39.60" arrivalSpeed="16.32" duration="131.00" routeLength="93.45" waitingTime="116.00" waitingCount="1" stopTime="0.00" timeLoss="124.14" rerouteNo="0" devices="tripinfo_46" vType="DEFAULT_VEHTYPE" speedFactor="1.10" vaporized=""/>
    <tripinfo id="48" depart="53.00" departLane="n1ton4_0" departPos="5.10" departSpeed="0.00" departDelay="5.00" arrival="177.00" arrivalLane="n4ton0_1" arrivalPos="39.60" arrivalSpeed="13.61" duration="124.00" routeLength="93.45" waitingTime="108.00" waitingCount="1" stopTime="0.00" timeLoss="116.56" rerouteNo="0" devices="tripinfo_48" vType="DEFAULT_VEHTYPE" speedFactor="0.90" vaporized=""/>
    <tripinfo id="49" depart="54.00" departLane="n1ton4_0" departPos="5.10" departSpeed="0.00" departDelay="5.00" arrival="179.00" arrivalLane="n4ton0_1" arrivalPos="39.60" arrivalSpeed="14.78" duration="125.00" routeLength="93.45" waitingTime="107.00" waitingCount="1" stopTime="0.00" timeLoss="118.28" rerouteNo="0" devices="tripinfo_49" vType="DEFAULT_VEHTYPE" speedFactor="1.03" vaporized=""/>
    <tripinfo id="89" depart="89.00" departLane="n3ton4_0" departPos="5.10" departSpeed="0.00" departDelay="0.00" arrival="180.00" arrivalLane="n4ton2_1" arrivalPos="39.60" arrivalSpeed="13.37" duration="91.00" routeLength="93.45" waitingTime="73.00" waitingCount="1" stopTime="0.00" timeLoss="82.45" rerouteNo="0" devices="tripinfo_89" vType="DEFAULT_VEHTYPE" speedFactor="0.88" vaporized=""/>
    <tripinfo id="82" depart="84.00" departLane="n1ton4_0" departPos="5.10" departSpeed="0.00" departDelay="2.00" arrival="181.00" arrivalLane="n4ton0_1" arrivalPos="39.60" arrivalSpeed="16.20" duration="97.00" routeLength="93.45" waitingTime="82.00" waitingCount="1" stopTime="0.00" timeLoss="90.63" rerouteNo="0" devices="tripinfo_82" vType="DEFAULT_VEHTYPE" speedFactor="1.12" vaporized=""/>
    <tripinfo id="107" depart="107.00" departLane="n1ton4_0" departPos="5.10" departSpeed="0.00" departDelay="0.00" arrival="184.00" arrivalLane="n4ton0_1" arrivalPos="39.60" arrivalSpeed="15.33" duration="77.00" routeLength="93.45" waitingTime="59.00" waitingCount="1" stopTime="0.00" timeLoss="69.69" rerouteNo="0" devices="tripinfo_107" vType="DEFAULT_VEHTYPE" speedFactor="1.03" vaporized=""/>
    <tripinfo id="116" depart="116.00" departLane="n1ton4_0" departPos="5.10" departSpeed="0.00" departDelay="0.00" arrival="186.00" arrivalLane="n4ton0_1" arrivalPos="39.60" arrivalSpeed="14.57" duration="70.00" routeLength="93.45" waitingTime="54.00" waitingCount="1" stopTime="0.00" timeLoss="62.40" rerouteNo="0" devices="tripinfo_116" vType="DEFAULT_VEHTYPE" speedFactor="0.98" vaporized=""/>
    <tripinfo id="27" depart="29.00" departLane="n0ton4_0" departPos="5.10" departSpeed="0.00" departDelay="2.00" arrival="201.00" arrivalLane="n4ton3_0" arrivalPos="39.60" arrivalSpeed="0.30" duration="172.00" routeLength="93.45" waitingTime="48.00" waitingCount="1" stopTime="0.00" timeLoss="163.90" rerouteNo="0" devices="tripinfo_27" vType="DEFAULT_VEHTYPE" speedFactor="0.83" vaporized=""/>
    <tripinfo id="81" depart="81.00" departLane="n1ton4_0" departPos="5.10" departSpeed="0.00" departDelay="0.00" arrival="219.00" arrivalLane="n4ton2_0" arrivalPos="39.60" arrivalSpeed="14.16" duration="138.00" routeLength="83.13" waitingTime="123.00" waitingCount="1" stopTime="0.00" timeLoss="132.07" rerouteNo="0" devices="tripinfo_81" vType="DEFAULT_VEHTYPE" speedFactor="1.08" vaporized=""/>
    <tripinfo id="93" depart="93.00" departLane="n3ton4_0" departPos="5.10" departSpeed="0.00" departDelay="0.00" arrival="220.00" arrivalLane="n4ton1_0" arrivalPos="39.60" arrivalSpeed="15.82" duration="127.00" routeLength="94.90" waitingTime="111.00" waitingCount="1" stopTime="0.00" timeLoss="120.69" rerouteNo="0" devices="tripinfo_93" vType="DEFAULT_VEHTYPE" speedFactor="1.02" vaporized=""/>
    <tripinfo id="95" depart="96.00" departLane="n3ton4_0" departPos="5.10" departSpeed="0.00" departDelay="1.00" arrival="221.00" arrivalLane="n4ton0_0" arrivalPos="39.60" arrivalSpeed="13.98" duration="125.00" routeLength="83.13" waitingTime="109.00" waitingCount="1" stopTime="0.00" timeLoss="118.77" rerouteNo="0" devices="tripinfo_95" vType="DEFAULT_VEHTYPE" speedFactor="0.97" vaporized=""/>
    <tripinfo id="103" depart="103.00" departLane="n3ton4_0" departPos="5.10" departSpeed="0.00" departDelay="0.00" arrival="224.00" arrivalLane="n4ton0_0" arrivalPos="39.60" arrivalSpeed="13.05" duration="121.00" routeLength="83.13" waitingTime="105.00" waitingCount="1" stopTime="0.00" timeLoss="114.23" rerouteNo="0" devices="tripinfo_103" vType="DEFAULT_VEHTYPE" speedFactor="0.98" vaporized=""/>
    <tripinfo id="110" depart="110.00" departLane="n3ton4_0" departPos="5.10" departSpeed="0.00" departDelay="0.00" arrival="226.00" arrivalLane="n4ton0_0" arrivalPos="39.60" arrivalSpeed="14.35" duration="116.00" routeLength="83.13" waitingTime="100.00" waitingCount="1" stopTime="0.00" timeLoss="110.33" rerouteNo="0" devices="tripinfo_110" vType="DEFAULT_VEHTYPE" speedFactor="1.09" vaporized=""/>
    <tripinfo id="111" depart="111.00" departLane="n1ton4_0" departPos="5.10" departSpeed="0.00" departDelay="0.00" arrival="226.00" arrivalLane="n4ton2_0" arrivalPos="39.60" arrivalSpeed="14.16" duration="115.00" routeLength="83.13" waitingTime="100.00" waitingCount="1" stopTime="0.00" timeLoss="109.05" rerouteNo="0" devices="tripinfo_111" vType="DEFAULT_VEHTYPE" speedFactor="1.03" vaporized=""/>
    <tripinfo id="112" depart="113.00" departLane="n3ton4_0" departPos="5.10" departSpeed="0.00" departDelay="1.00" arrival="228.00" arrivalLane="n4ton1_0" arrivalPos="39.60" arrivalSpeed="15.62" duration="115.00" routeLength="94.90" waitingTime="99.00" waitingCount="1" stopTime="0.00" timeLoss="108.99" rerouteNo="0" devices="tripinfo_112" vType="DEFAULT_VEHTYPE" speedFactor="1.00" vaporized=""/>
    <tripinfo id="118" depart="122.00" departLane="n1ton4_0" departPos="5.10" departSpeed="0.00" departDelay="4.00" arrival="229.00" arrivalLane="n4ton2_0" arrivalPos="39.60" arrivalSpeed="14.96" duration="107.00" routeLength="83.13" waitingTime="91.00" waitingCount="1" stopTime="0.00" timeLoss="100.38" rerouteNo="0" devices="tripinfo_118" vType="DEFAULT_VEHTYPE" speedFactor="1.04" vaporized=""/>
    <tripinfo id="132" depart="222.00" departLane="n3ton4_0" departPos="5.10" departSpeed="0.00" departDelay="90.00" arrival="232.00" arrivalLane="n4ton1_0" arrivalPos="39.60" arrivalSpeed="16.37" duration="10.00" routeLength="94.90" waitingTime="0.00" waitingCount="0" stopTime="0.00" timeLoss="4.11" rerouteNo="0" devices="tripinfo_132" vType="DEFAULT_VEHTYPE" speedFactor="1.06" vaporized=""/>
    <tripinfo id="133" depart="223.00" departLane="n1ton4_0" departPos="5.10" departSpeed="0.00" departDelay="90.00" arrival="235.00" arrivalLane="n4ton2_0" arrivalPos="39.60" arrivalSpeed="13.96" duration="12.00" routeLength="83.13" waitingTime="0.00" waitingCount="0" stopTime="0.00" timeLoss="5.90" rerouteNo="0" devices="tripinfo_133" vType="DEFAULT_VEHTYPE" speedFactor="1.01" vaporized=""/>
    <tripinfo id="135" depart="226.00" departLane="n1ton4_0" departPos="5.10" departSpeed="0.00" departDelay="91.00" arrival="238.00" arrivalLane="n4ton2_0" arrivalPos="39.60" arrivalSpeed="14.94" duration="12.00" routeLength="83.13" waitingTime="0.00" waitingCount="0" stopTime="0.00" timeLoss="6.13" rerouteNo="0" devices="tripinfo_135" vType="DEFAULT_VEHTYPE" speedFactor="1.12" vaporized=""/>
    <tripinfo id="144" depart="229.00" departLane="n3ton4_0" departPos="5.10" departSpeed="0.00" departDelay="85.00" arrival="239.00" arrivalLane="n4ton1_0" arrivalPos="39.60" arrivalSpeed="14.29" duration="10.00" routeLength="94.90" waitingTime="0.00" waitingCount="0" stopTime="0.00" timeLoss="3.34" rerouteNo="0" devices="tripinfo_144" vType="DEFAULT_VEHTYPE" speedFactor="0.89" vaporized=""/>
    <tripinfo id="145" depart="232.00" departLane="n3ton4_0" departPos="5.10" departSpeed="0.00" departDelay="87.00" arrival="244.00" arrivalLane="n4ton0_0" arrivalPos="39.60" arrivalSpeed="14.74" duration="12.00" routeLength="83.13" waitingTime="0.00" waitingCount="0" stopTime="0.00" timeLoss="5.58" rerouteNo="0" devices="tripinfo_145" vType="DEFAULT_VEHTYPE" speedFactor="1.07" vaporized=""/>
    <tripinfo id="151" depart="232.00" departLane="n1ton4_0" departPos="5.10" departSpeed="0.00" departDelay="81.00" arrival="244.00" arrivalLane="n4ton2_0" arrivalPos="39.60" arrivalSpeed="13.45" duration="12.00" routeLength="83.13" waitingTime="0.00" waitingCount="0" stopTime="0.00" timeLoss="5.74" rerouteNo="0" devices="tripinfo_151" vType="DEFAULT_VEHTYPE" speedFactor="0.93" vaporized=""/>
    <tripinfo id="163" depart="237.00" departLane="n1ton4_0" departPos="5.10" departSpeed="0.00" departDelay="74.00" arrival="248.00" arrivalLane="n4ton2_0" arrivalPos="39.60" arrivalSpeed="12.80" duration="11.00" routeLength="83.13" waitingTime="0.00" waitingCount="0" stopTime="0.00" timeLoss="4.81" rerouteNo="0" devices="tripinfo_163" vType="DEFAULT_VEHTYPE" speedFactor="0.92" vaporized=""/>
    <tripinfo id="12" depart="12.00" departLane="n2ton4_0" departPos="5.10" departSpeed="0.00" departDelay="0.00" arrival="251.00" arrivalLane="n4ton3_1" arrivalPos="39.60" arrivalSpeed="0.30" duration="239.00" routeLength="83.13" waitingTime="110.00" waitingCount="1" stopTime="0.00" timeLoss="233.71" rerouteNo="0" devices="tripinfo_12" vType="DEFAULT_VEHTYPE" speedFactor="1.09" vaporized=""/>
    <tripinfo id="168" depart="240.00" departLane="n1ton4_0" departPos="5.10" departSpeed="0.00" departDelay="72.00" arrival="252.00" arrivalLane="n4ton2_0" arrivalPos="39.60" arrivalSpeed="12.82" duration="12.00" routeLength="83.13" waitingTime="0.00" waitingCount="0" stopTime="0.00" timeLoss="6.41" rerouteNo="0" devices="tripinfo_168" vType="DEFAULT_VEHTYPE" speedFactor="1.07" vaporized=""/>
    <tripinfo id="172" depart="243.00" departLane="n1ton4_0" departPos="5.10" departSpeed="0.00" departDelay="71.00" arrival="255.00" arrivalLane="n4ton2_0" arrivalPos="39.60" arrivalSpeed="16.23" duration="12.00" routeLength="83.13" waitingTime="0.00" waitingCount="0" stopTime="0.00" timeLoss="5.50" rerouteNo="0" devices="tripinfo_172" vType="DEFAULT_VEHTYPE" speedFactor="1.02" vaporized=""/>