<?xml version="1.0" encoding="UTF-8"?>

<!-- generated on Tue Apr 28 23:41:23 2020 by Eclipse SUMO GUI Version 1.5.0
<configuration xmlns:xsi="http://www.w3.org/2001/XMLSchema-instance" xsi:noNamespaceSchemaLocation="http://sumo.dlr.de/xsd/sumoConfiguration.xsd">

    <input>
        <net-file value="my_net.net.xml"/>
        <route-files value="my_route.rou.xml"/>
        <additional-files value="demo.add.xml"/>
    </input>

    <output>
        <tripinfo-output value="tripinfo.xml"/>
    </output>

    <time>
        <begin value="0"/>
        <end value="2000"/>
    </time>

    <traci_server>
        <remote-port value="59694"/>
    </traci_server>

</configuration>
-->

<tripinfos xmlns:xsi="http://www.w3.org/2001/XMLSchema-instance" xsi:noNamespaceSchemaLocation="http://sumo.dlr.de/xsd/tripinfo_file.xsd">
    <tripinfo id="1" depart="1.00" departLane="n3ton4_0" departPos="5.10" departSpeed="0.00" departDelay="0.00" arrival="11.00" arrivalLane="n4ton1_0" arrivalPos="39.60" arrivalSpeed="14.84" duration="10.00" routeLength="94.90" waitingTime="0.00" waitingCount="0" stopTime="0.00" timeLoss="3.18" rerouteNo="0" devices="tripinfo_1" vType="DEFAULT_VEHTYPE" speedFactor="0.94" vaporized=""/>
    <tripinfo id="6" depart="6.00" departLane="n1ton4_0" departPos="5.10" departSpeed="0.00" departDelay="0.00" arrival="18.00" arrivalLane="n4ton2_0" arrivalPos="39.60" arrivalSpeed="15.14" duration="12.00" routeLength="83.13" waitingTime="0.00" waitingCount="0" stopTime="0.00" timeLoss="5.37" rerouteNo="0" devices="tripinfo_6" vType="DEFAULT_VEHTYPE" speedFactor="1.03" vaporized=""/>
    <tripinfo id="12" depart="15.00" departLane="n1ton4_0" departPos="5.10" departSpeed="0.00" departDelay="3.00" arrival="27.00" arrivalLane="n4ton2_0" arrivalPos="39.60" arrivalSpeed="12.77" duration="12.00" routeLength="83.13" waitingTime="0.00" waitingCount="0" stopTime="0.00" timeLoss="5.22" rerouteNo="0" devices="tripinfo_12" vType="DEFAULT_VEHTYPE" speedFactor="0.86" vaporized=""/>
    <tripinfo id="35" depart="35.00" departLane="n1ton4_0" departPos="5.10" departSpeed="0.00" departDelay="0.00" arrival="48.00" arrivalLane="n4ton2_0" arrivalPos="39.60" arrivalSpeed="13.43" duration="13.00" routeLength="83.13" waitingTime="0.00" waitingCount="0" stopTime="0.00" timeLoss="5.59" rerouteNo="0" devices="tripinfo_35" vType="DEFAULT_VEHTYPE" speedFactor="0.87" vaporized=""/>
    <tripinfo id="27" depart="29.00" departLane="n2ton4_0" departPos="5.10" departSpeed="0.00" departDelay="2.00" arrival="55.00" arrivalLane="n4ton1_1" arrivalPos="39.60" arrivalSpeed="14.26" duration="26.00" routeLength="93.45" waitingTime="10.00" waitingCount="1" stopTime="0.00" timeLoss="19.47" rerouteNo="0" devices="tripinfo_27" vType="DEFAULT_VEHTYPE" speedFactor="1.02" vaporized=""/>
    <tripinfo id="2" depart="2.00" departLane="n0ton4_0" departPos="5.10" departSpeed="0.00" departDelay="0.00" arrival="61.00" arrivalLane="n4ton1_0" arrivalPos="39.60" arrivalSpeed="13.80" duration="59.00" routeLength="83.13" waitingTime="44.00" waitingCount="1" stopTime="0.00" timeLoss="53.09" rerouteNo="0" devices="tripinfo_2" vType="DEFAULT_VEHTYPE" speedFactor="1.01" vaporized=""/>
    <tripinfo id="3" depart="5.00" departLane="n0ton4_0" departPos="5.10" departSpeed="0.00" departDelay="2.00" arrival="64.00" arrivalLane="n4ton1_0" arrivalPos="39.60" arrivalSpeed="14.60" duration="59.00" routeLength="83.13" waitingTime="43.00" waitingCount="1" stopTime="0.00" timeLoss="52.62" rerouteNo="0" devices="tripinfo_3" vType="DEFAULT_VEHTYPE" speedFactor="1.08" vaporized=""/>
    <tripinfo id="17" depart="17.00" departLane="n0ton4_0" departPos="5.10" departSpeed="0.00" departDelay="0.00" arrival="66.00" arrivalLane="n4ton1_0" arrivalPos="39.60" arrivalSpeed="15.84" duration="49.00" routeLength="83.13" waitingTime="33.00" waitingCount="1" stopTime="0.00" timeLoss="43.26" rerouteNo="0" devices="tripinfo_17" vType="DEFAULT_VEHTYPE" speedFactor="1.12" vaporized=""/>
    <tripinfo id="36" depart="36.00" departLane="n0ton4_0" departPos="5.10" departSpeed="0.00" departDelay="0.00" arrival="69.00" arrivalLane="n4ton1_0" arrivalPos="39.60" arrivalSpeed="12.76" duration="33.00" routeLength="83.13" waitingTime="16.00" waitingCount="1" stopTime="0.00" timeLoss="26.70" rerouteNo="0" devices="tripinfo_36" vType="DEFAULT_VEHTYPE" speedFactor="0.92" vaporized=""/>
    <tripinfo id="40" depart="40.00" departLane="n0ton4_0" departPos="5.10" departSpeed="0.00" departDelay="0.00" arrival="72.00" arrivalLane="n4ton2_0" arrivalPos="39.60" arrivalSpeed="16.70" duration="32.00" routeLength="94.90" waitingTime="15.00" waitingCount="1" stopTime="0.00" timeLoss="26.20" rerouteNo="0" devices="tripinfo_40" vType="DEFAULT_VEHTYPE" speedFactor="1.18" vaporized=""/>
    <tripinfo id="42" depart="61.00" departLane="n0ton4_0" departPos="5.10" departSpeed="0.00" departDelay="19.00" arrival="73.00" arrivalLane="n4ton2_0" arrivalPos="39.60" arrivalSpeed="16.33" duration="12.00" routeLength="94.90" waitingTime="0.00" waitingCount="0" stopTime="0.00" timeLoss="6.82" rerouteNo="0" devices="tripinfo_42" vType="DEFAULT_VEHTYPE" speedFactor="1.15" vaporized=""/>
    <tripinfo id="48" depart="65.00" departLane="n0ton4_0" departPos="5.10" departSpeed="0.00" departDelay="17.00" arrival="77.00" arrivalLane="n4ton1_0" arrivalPos="39.60" arrivalSpeed="12.75" duration="12.00" routeLength="83.13" waitingTime="0.00" waitingCount="0" stopTime="0.00" timeLoss="6.26" rerouteNo="0" devices="tripinfo_48" vType="DEFAULT_VEHTYPE" speedFactor="1.02" vaporized=""/>
    <tripinfo id="15" depart="18.00" departLane="n1ton4_0" departPos="5.10" departSpeed="0.00" departDelay="3.00" arrival="78.00" arrivalLane="n4ton3_0" arrivalPos="39.60" arrivalSpeed="0.30" duration="60.00" routeLength="94.90" waitingTime="0.00" waitingCount="0" stopTime="0.00" timeLoss="54.22" rerouteNo="0" devices="tripinfo_15" vType="DEFAULT_VEHTYPE" speedFactor="1.03" vaporized=""/>
    <tripinfo id="51" depart="68.00" departLane="n0ton4_0" departPos="5.10" departSpeed="0.00" departDelay="17.00" arrival="80.00" arrivalLane="n4ton2_0" arrivalPos="39.60" arrivalSpeed="16.96" duration="12.00" routeLength="94.90" waitingTime="0.00" waitingCount="0" stopTime="0.00" timeLoss="5.89" rerouteNo="0" devices="tripinfo_51" vType="DEFAULT_VEHTYPE" speedFactor="1.10" vaporized=""/>
    <tripinfo id="54" depart="71.00" departLane="n0ton4_0" departPos="5.10" departSpeed="0.00" departDelay="17.00" arrival="82.00" arrivalLane="n4ton2_0" arrivalPos="39.60" arrivalSpeed="14.04" duration="11.00" routeLength="94.90" waitingTime="0.00" waitingCount="0" stopTime="0.00" timeLoss="3.90" rerouteNo="0" devices="tripinfo_54" vType="DEFAULT_VEHTYPE" speedFactor="0.96" vaporized=""/>
    <tripinfo id="55" depart="74.00" departLane="n0ton4_0" departPos="5.10" departSpeed="0.00" departDelay="19.00" arrival="84.00" arrivalLane="n4ton2_0" arrivalPos="39.60" arrivalSpeed="16.52" duration="10.00" routeLength="94.90" waitingTime="0.00" waitingCount="0" stopTime="0.00" timeLoss="4.08" rerouteNo="0" devices="tripinfo_55" vType="DEFAULT_VEHTYPE" speedFactor="1.09" vaporized=""/>
    <tripinfo id="58" depart="77.00" departLane="n0ton4_0" departPos="5.10" departSpeed="0.00" departDelay="19.00" arrival="89.00" arrivalLane="n4ton1_0" arrivalPos="39.60" arrivalSpeed="13.40" duration="12.00" routeLength="83.13" waitingTime="0.00" waitingCount="0" stopTime="0.00" timeLoss="6.07" rerouteNo="0" devices="tripinfo_58" vType="DEFAULT_VEHTYPE" speedFactor="1.04" vaporized=""/>
    <tripinfo id="63" depart="80.00" departLane="n0ton4_0" departPos="5.10" departSpeed="0.00" departDelay="17.00" arrival="91.00" arrivalLane="n4ton2_0" arrivalPos="39.60" arrivalSpeed="13.52" duration="11.00" routeLength="94.90" waitingTime="0.00" waitingCount="0" stopTime="0.00" timeLoss="4.03" rerouteNo="0" devices="tripinfo_63" vType="DEFAULT_VEHTYPE" speedFactor="0.90" vaporized=""/>
    <tripinfo id="65" depart="83.00" departLane="n0ton4_0" departPos="5.10" departSpeed="0.00" departDelay="18.00" arrival="94.00" arrivalLane="n4ton2_0" arrivalPos="39.60" arrivalSpeed="12.37" duration="11.00" routeLength="94.90" waitingTime="0.00" waitingCount="0" stopTime="0.00" timeLoss="3.98" rerouteNo="0" devices="tripinfo_65" vType="DEFAULT_VEHTYPE" speedFactor="0.85" vaporized=""/>
    <tripinfo id="85" depart="87.00" departLane="n0ton4_0" departPos="5.10" departSpeed="0.00" departDelay="2.00" arrival="98.00" arrivalLane="n4ton2_0" arrivalPos="39.60" arrivalSpeed="14.86" duration="11.00" routeLength="94.90" waitingTime="0.00" waitingCount="0" stopTime="0.00" timeLoss="3.87" rerouteNo="0" devices="tripinfo_85" vType="DEFAULT_VEHTYPE" speedFactor="0.94" vaporized=""/>
    <tripinfo id="8" depart="9.00" departLane="n1ton4_0" departPos="5.10" departSpeed="0.00" departDelay="1.00" arrival="109.00" arrivalLane="n4ton0_1" arrivalPos="39.60" arrivalSpeed="14.63" duration="100.00" routeLength="93.45" waitingTime="83.00" waitingCount="1" stopTime="0.00" timeLoss="93.43" rerouteNo="0" devices="tripinfo_8" vType="DEFAULT_VEHTYPE" speedFactor="1.05" vaporized=""/>
    <tripinfo id="9" depart="10.00" departLane="n1ton4_0" departPos="5.10" departSpeed="0.00" departDelay="1.00" arrival="112.00" arrivalLane="n4ton0_1" arrivalPos="39.60" arrivalSpeed="12.92" duration="102.00" routeLength="93.45" waitingTime="84.00" waitingCount="1" stopTime="0.00" timeLoss="94.25" rerouteNo="0" devices="tripinfo_9" vType="DEFAULT_VEHTYPE" speedFactor="0.89" vaporized=""/>
    <tripinfo id="10" depart="13.00" departLane="n1ton4_0" departPos="5.10" departSpeed="0.00" departDelay="3.00" arrival="114.00" arrivalLane="n4ton0_1" arrivalPos="39.60" arrivalSpeed="13.73" duration="101.00" routeLength="93.45" waitingTime="83.00" waitingCount="1" stopTime="0.00" timeLoss="93.38" rerouteNo="0" devices="tripinfo_10" vType="DEFAULT_VEHTYPE" speedFactor="0.94" vaporized=""/>
    <tripinfo id="52" depart="52.00" departLane="n1ton4_0" departPos="5.10" departSpeed="0.00" departDelay="0.00" arrival="114.00" arrivalLane="n4ton2_0" arrivalPos="39.60" arrivalSpeed="14.09" duration="62.00" routeLength="83.13" waitingTime="48.00" waitingCount="1" stopTime="0.00" timeLoss="55.14" rerouteNo="0" devices="tripinfo_52" vType="DEFAULT_VEHTYPE" speedFactor="0.90" vaporized=""/>
    <tripinfo id="20" depart="22.00" departLane="n1ton4_0" departPos="5.10" departSpeed="0.00" departDelay="2.00" arrival="115.00" arrivalLane="n4ton3_1" arrivalPos="39.60" arrivalSpeed="0.30" duration="93.00" routeLength="94.90" waitingTime="0.00" waitingCount="0" stopTime="0.00" timeLoss="86.24" rerouteNo="0" devices="tripinfo_20" vType="DEFAULT_VEHTYPE" speedFactor="0.88" vaporized=""/>
    <tripinfo id="79" depart="79.00" departLane="n1ton4_0" departPos="5.10" departSpeed="0.00" departDelay="0.00" arrival="117.00" arrivalLane="n4ton0_1" arrivalPos="39.60" arrivalSpeed="13.10" duration="38.00" routeLength="93.45" waitingTime="22.00" waitingCount="1" stopTime="0.00" timeLoss="31.13" rerouteNo="0" devices="tripinfo_79" vType="DEFAULT_VEHTYPE" speedFactor="0.97" vaporized=""/>
    <tripinfo id="32" depart="32.00" departLane="n1ton4_0" departPos="5.10" departSpeed="0.00" departDelay="0.00" arrival="118.00" arrivalLane="n4ton3_0" arrivalPos="39.60" arrivalSpeed="0.30" duration="86.00" routeLength="94.90" waitingTime="0.00" waitingCount="0" stopTime="0.00" timeLoss="79.34" rerouteNo="0" devices="tripinfo_32" vType="DEFAULT_VEHTYPE" speedFactor="0.89" vaporized=""/>
    <tripinfo id="18" depart="21.00" departLane="n1ton4_0" departPos="5.10" departSpeed="0.00" departDelay="3.00" arrival="119.00" arrivalLane="n4ton0_1" arrivalPos="39.60" arrivalSpeed="14.89" duration="98.00" routeLength="93.45" waitingTime="82.00" waitingCount="1" stopTime="0.00" timeLoss="91.08" rerouteNo="0" devices="tripinfo_18" vType="DEFAULT_VEHTYPE" speedFactor="0.99" vaporized=""/>
    <tripinfo id="68" depart="70.00" departLane="n1ton4_0" departPos="5.10" departSpeed="0.00" departDelay="2.00" arrival="121.00" arrivalLane="n4ton0_1" arrivalPos="39.60" arrivalSpeed="14.14" duration="51.00" routeLength="93.45" waitingTime="34.00" waitingCount="1" stopTime="0.00" timeLoss="44.48" rerouteNo="0" devices="tripinfo_68" vType="DEFAULT_VEHTYPE" speedFactor="1.02" vaporized=""/>
    <tripinfo id="88" depart="88.00" departLane="n1ton4_0" departPos="5.10" departSpeed="0.00" departDelay="0.00" arrival="123.00" arrivalLane="n4ton2_0" arrivalPos="39.60" arrivalSpeed="13.49" duration="35.00" routeLength="83.13" waitingTime="15.00" waitingCount="1" stopTime="0.00" timeLoss="28.32" rerouteNo="0" devices="tripinfo_88" vType="DEFAULT_VEHTYPE" speedFactor="0.91" vaporized=""/>
    <tripinfo id="91" depart="111.00" departLane="n1ton4_0" departPos="5.10" departSpeed="0.00" departDelay="20.00" arrival="124.00" arrivalLane="n4ton0_1" arrivalPos="39.60" arrivalSpeed="13.90" duration="13.00" routeLength="93.45" waitingTime="0.00" waitingCount="0" stopTime="0.00" timeLoss="6.35" rerouteNo="0" devices="tripinfo_91" vType="DEFAULT_VEHTYPE" speedFactor="1.02" vaporized=""/>
    <tripinfo id="90" depart="91.00" departLane="n1ton4_0" departPos="5.10" departSpeed="0.00" departDelay="1.00" arrival="126.00" arrivalLane="n4ton2_0" arrivalPos="39.60" arrivalSpeed="13.60" duration="35.00" routeLength="83.13" waitingTime="13.00" waitingCount="1" stopTime="0.00" timeLoss="28.85" rerouteNo="0" devices="tripinfo_90" vType="DEFAULT_VEHTYPE" speedFactor="1.04" vaporized=""/>
    <tripinfo id="93" depart="113.00" departLane="n1ton4_0" departPos="5.10" departSpeed="0.00" departDelay="20.00" arrival="126.00" arrivalLane="n4ton0_1" arrivalPos="39.60" arrivalSpeed="14.49" duration="13.00" routeLength="93.45" waitingTime="1.00" waitingCount="1" stopTime="0.00" timeLoss="6.09" rerouteNo="0" devices="tripinfo_93" vType="DEFAULT_VEHTYPE" speedFactor="0.97" vaporized=""/>
    <tripinfo id="94" depart="115.00" departLane="n1ton4_0" departPos="5.10" departSpeed="0.00" departDelay="21.00" arrival="130.00" arrivalLane="n4ton0_1" arrivalPos="39.60" arrivalSpeed="14.60" duration="15.00" routeLength="93.45" waitingTime="0.00" waitingCount="0" stopTime="0.00" timeLoss="7.21" rerouteNo="0" devices="tripinfo_94" vType="DEFAULT_VEHTYPE" speedFactor="0.94" vaporized=""/>
    <tripinfo id="101" depart="118.00" departLane="n1ton4_0" departPos="5.10" departSpeed="0.00" departDelay="17.00" arrival="132.00" arrivalLane="n4ton0_1" arrivalPos="39.60" arrivalSpeed="13.02" duration="14.00" routeLength="93.45" waitingTime="0.00" waitingCount="0" stopTime="0.00" timeLoss="6.87" rerouteNo="0" devices="tripinfo_101" vType="DEFAULT_VEHTYPE" speedFactor="0.98" vaporized=""/>
    <tripinfo id="16" depart="16.00" departLane="n3ton4_0" departPos="5.10" departSpeed="0.00" departDelay="0.00" arrival="140.00" arrivalLane="n4ton0_0" arrivalPos="39.60" arrivalSpeed="15.62" duration="124.00" routeLength="83.13" waitingTime="107.00" waitingCount="1" stopTime="0.00" timeLoss="117.31" rerouteNo="0" devices="tripinfo_16" vType="DEFAULT_VEHTYPE" speedFactor="1.05" vaporized=""/>
    <tripinfo id="19" depart="19.00" departLane="n3ton4_0" departPos="5.10" departSpeed="0.00" departDelay="0.00" arrival="142.00" arrivalLane="n4ton0_0" arrivalPos="39.60" arrivalSpeed="13.81" duration="123.00" routeLength="83.13" waitingTime="106.00" waitingCount="1" stopTime="0.00" timeLoss="116.04" rerouteNo="0" devices="tripinfo_19" vType="DEFAULT_VEHTYPE" speedFactor="0.93" vaporized=""/>
    <tripinfo id="22" depart="22.00" departLane="n3ton4_0" departPos="5.10" departSpeed="0.00" departDelay="0.00" arrival="144.00" arrivalLane="n4ton1_0" arrivalPos="39.60" arrivalSpeed="14.24" duration="122.00" routeLength="94.90" waitingTime="106.00" waitingCount="1" stopTime="0.00" timeLoss="115.45" rerouteNo="0" devices="tripinfo_22" vType="DEFAULT_VEHTYPE" speedFactor="0.94" vaporized=""/>
    <tripinfo id="49" depart="49.00" departLane="n3ton4_0" departPos="5.10" departSpeed="0.00" departDelay="0.00" arrival="147.00" arrivalLane="n4ton0_0" arrivalPos="39.60" arrivalSpeed="15.21" duration="98.00" routeLength="83.13" waitingTime="82.00" waitingCount="1" stopTime="0.00" timeLoss="91.63" rerouteNo="0" devices="tripinfo_49" vType="DEFAULT_VEHTYPE" speedFactor="0.97" vaporized=""/>
    <tripinfo id="39" depart="39.00" departLane="n1ton4_0" departPos="5.10" departSpeed="0.00" departDelay="0.00" arrival="150.00" arrivalLane="n4ton3_1" arrivalPos="39.60" arrivalSpeed="0.30" duration="111.00" routeLength="94.90" waitingTime="0.00" waitingCount="0" stopTime="0.00" timeLoss="104.64" rerouteNo="0" devices="tripinfo_39" vType="DEFAULT_VEHTYPE" speedFactor="0.93" vaporized=""/>
    <tripinfo id="53" depart="53.00" departLane="n3ton4_0" departPos="5.10" departSpeed="0.00" departDelay="0.00" arrival="150.00" arrivalLane="n4ton0_0" arrivalPos="39.60" arrivalSpeed="13.81" duration="97.00" routeLength="83.13" waitingTime="80.00" waitingCount="1" stopTime="0.00" timeLoss="90.38" rerouteNo="0" devices="tripinfo_53" vType="DEFAULT_VEHTYPE" speedFactor="1.03" vaporized=""/>
    <tripinfo id="61" depart="139.00" departLane="n3ton4_0" departPos="5.10" departSpeed="0.00" departDelay="78.00" arrival="152.00" arrivalLane="n4ton0_0" arrivalPos="39.60" arrivalSpeed="15.40" duration="13.00" routeLength="83.13" waitingTime="0.00" waitingCount="0" stopTime="0.00" timeLoss="7.07" rerouteNo="0" devices="tripinfo_61" vType="DEFAULT_VEHTYPE" speedFactor="1.09" vaporized=""/>
    <tripinfo id="34" depart="34.00" departLane="n0ton4_0" departPos="5.10" departSpeed="0.00" departDelay="0.00" arrival="153.00" arrivalLane="n4ton3_1" arrivalPos="39.60" arrivalSpeed="6.78" duration="119.00" routeLength="93.45" waitingTime="7.00" waitingCount="1" stopTime="0.00" timeLoss="110.30" rerouteNo="0" devices="tripinfo_34" vType="DEFAULT_VEHTYPE" speedFactor="0.83" vaporized=""/>
    <tripinfo id="37" depart="39.00" departLane="n0ton4_0" departPos="5.10" departSpeed="0.00" departDelay="2.00" arrival="155.00" arrivalLane="n4ton3_1" arrivalPos="39.60" arrivalSpeed="8.30" duration="116.00" routeLength="93.45" waitingTime="4.00" waitingCount="1" stopTime="0.00" timeLoss="108.39" rerouteNo="0" devices="tripinfo_37" vType="DEFAULT_VEHTYPE" speedFactor="0.95" vaporized=""/>
    <tripinfo id="62" depart="142.00" departLane="n3ton4_0" departPos="5.10" departSpeed="0.00" departDelay="80.00" arrival="155.00" arrivalLane="n4ton0_0" arrivalPos="39.60" arrivalSpeed="13.50" duration="13.00" routeLength="83.13" waitingTime="0.00" waitingCount="0" stopTime="0.00" timeLoss="7.03" rerouteNo="0" devices="tripinfo_62" vType="DEFAULT_VEHTYPE" speedFactor="1.00" vaporized=""/>
    <tripinfo id="23" depart="23.00" departLane="n2ton4_0" departPos="5.10" departSpeed="0.00" departDelay="0.00" arrival="157.00" arrivalLane="n4ton3_1" arrivalPos="39.60" arrivalSpeed="9.81" duration="134.00" routeLength="83.13" waitingTime="33.00" waitingCount="1" stopTime="0.00" timeLoss="127.27" rerouteNo="0" devices="tripinfo_23" vType="DEFAULT_VEHTYPE" speedFactor="0.94" vaporized=""/>
    <tripinfo id="69" depart="146.00" departLane="n3ton4_0" departPos="5.10" departSpeed="0.00" departDelay="77.00" arrival="157.00" arrivalLane="n4ton1_0" arrivalPos="39.60" arrivalSpeed="16.77" duration="11.00" routeLength="94.90" waitingTime="0.00" waitingCount="0" stopTime="0.00" timeLoss="5.40" rerouteNo="0" devices="tripinfo_69" vType="DEFAULT_VEHTYPE" speedFactor="1.10" vaporized=""/>
    <tripinfo id="73" depart="149.00" departLane="n3ton4_0" departPos="5.10" departSpeed="0.00" departDelay="76.00" arrival="159.00" arrivalLane="n4ton1_0" arrivalPos="39.60" arrivalSpeed="13.38" duration="10.00" routeLength="94.90" waitingTime="0.00" waitingCount="0" stopTime="0.00" timeLoss="3.24" rerouteNo="0" devices="tripinfo_73" vType="DEFAULT_VEHTYPE" speedFactor="0.90" vaporized=""/>
    <tripinfo id="111" depart="121.00" departLane="n1ton4_0" departPos="5.10" departSpeed="0.00" departDelay="10.00" arrival="159.00" arrivalLane="n4ton3_1" arrivalPos="39.60" arrivalSpeed="10.13" duration="38.00" routeLength="94.90" waitingTime="0.00" waitingCount="0" stopTime="0.00" timeLoss="32.64" rerouteNo="0" devices="tripinfo_111" vType="DEFAULT_VEHTYPE" speedFactor="1.15" vaporized=""/>
    <tripinfo id="112" depart="124.00" departLane="n1ton4_0" departPos="5.10" departSpeed="0.00" departDelay="12.00" arrival="162.00" arrivalLane="n4ton3_1" arrivalPos="39.60" arrivalSpeed="13.05" duration="38.00" routeLength="94.90" waitingTime="0.00" waitingCount="0" stopTime="0.00" timeLoss="31.41" rerouteNo="0" devices="tripinfo_112" vType="DEFAULT_VEHTYPE" speedFactor="0.98" vaporized=""/>
    <tripinfo id="81" depart="156.00" departLane="n3ton4_0" departPos="5.10" departSpeed="0.00" departDelay="75.00" arrival="167.00" arrivalLane="n4ton0_0" arrivalPos="39.60" arrivalSpeed="15.59" duration="11.00" routeLength="83.13" waitingTime="0.00" waitingCount="0" stopTime="0.00" timeLoss="5.10" rerouteNo="0" devices="tripinfo_81" vType="DEFAULT_VEHTYPE" speedFactor="1.12" vaporized=""/>
    <tripinfo id="82" depart="159.00" departLane="n3ton4_0" departPos="5.10" departSpeed="0.00" departDelay="77.00" arrival="170.00" arrivalLane="n4ton0_0" arrivalPos="39.60" arrivalSpeed="14.02" duration="11.00" routeLength="83.13" waitingTime="0.00" waitingCount="0" stopTime="0.00" timeLoss="4.99" rerouteNo="0" devices="tripinfo_82" vType="DEFAULT_VEHTYPE" speedFactor="1.02" vaporized=""/>
    <tripinfo id="87" depart="163.00" departLane="n3ton4_0" departPos="5.10" departSpeed="0.00" departDelay="76.00" arrival="176.00" arrivalLane="n4ton0_0" arrivalPos="39.60" arrivalSpeed="13.05" duration="13.00" routeLength="83.13" waitingTime="0.00" waitingCount="0" stopTime="0.00" timeLoss="5.52" rerouteNo="0" devices="tripinfo_87" vType="DEFAULT_VEHTYPE" speedFactor="0.91" vaporized=""/>
    <tripinfo id="14" depart="14.00" departLane="n0ton4_0" departPos="5.10" departSpeed="0.00" departDelay="0.00" arrival="177.00" arrivalLane="n4ton3_0" arrivalPos="39.60" arrivalSpeed="0.30" duration="163.00" routeLength="93.45" waitingTime="26.00" waitingCount="1" stopTime="0.00" timeLoss="156.84" rerouteNo="0" devices="tripinfo_14" vType="DEFAULT_VEHTYPE" speedFactor="1.09" vaporized=""/>
    <tripinfo id="96" depart="166.00" departLane="n3ton4_0" departPos="5.10" departSpeed="0.00" departDelay="70.00" arrival="178.00" arrivalLane="n4ton0_0" arrivalPos="39.60" arrivalSpeed="13.61" duration="12.00" routeLength="83.13" waitingTime="0.00" waitingCount="0" stopTime="0.00" timeLoss="5.66" rerouteNo="0" devices="tripinfo_96" vType="DEFAULT_VEHTYPE" speedFactor="0.96" vaporized=""/>
    <tripinfo id="92" depart="92.00" departLane="n0ton4_0" departPos="5.10" departSpeed="0.00" departDelay="0.00" arrival="188.00" arrivalLane="n4ton2_0" arrivalPos="39.60" arrivalSpeed="15.93" duration="96.00" routeLength="94.90" waitingTime="81.00" waitingCount="1" stopTime="0.00" timeLoss="89.75" rerouteNo="0" devices="tripinfo_92" vType="DEFAULT_VEHTYPE" speedFactor="1.02" vaporized=""/>
    <tripinfo id="95" depart="95.00" departLane="n0ton4_0" departPos="5.10" departSpeed="0.00" departDelay="0.00" arrival="190.00" arrivalLane="n4ton1_0" arrivalPos="39.60" arrivalSpeed="12.46" duration="95.00" routeLength="83.13" waitingTime="79.00" waitingCount="1" stopTime="0.00" timeLoss="88.80" rerouteNo="0" devices="tripinfo_95" vType="DEFAULT_VEHTYPE" speedFactor="1.06" vaporized=""/>
    <tripinfo id="24" depart="26.00" departLane="n2ton4_0" departPos="5.10" departSpeed="0.00" departDelay="2.00" arrival="192.00" arrivalLane="n4ton0_0" arrivalPos="39.60" arrivalSpeed="14.57" duration="166.00" routeLength="94.90" waitingTime="101.00" waitingCount="2" stopTime="0.00" timeLoss="160.56" rerouteNo="0" devices="tripinfo_24" vType="DEFAULT_VEHTYPE" speedFactor="1.16" vaporized=""/>
    <tripinfo id="98" depart="98.00" departLane="n0ton4_0" departPos="5.10" departSpeed="0.00" departDelay="0.00" arrival="192.00" arrivalLane="n4ton2_0" arrivalPos="39.60" arrivalSpeed="14.78" duration="94.00" routeLength="94.90" waitingTime="78.00" waitingCount="1" stopTime="0.00" timeLoss="87.41" rerouteNo="0" devices="tripinfo_98" vType="DEFAULT_VEHTYPE" speedFactor="0.98" vaporized=""/>
    <tripinfo id="106" depart="106.00" departLane="n0ton4_0" departPos="5.10" departSpeed="0.00" departDelay="0.00" arrival="193.00" arrivalLane="n4ton2_0" arrivalPos="39.60" arrivalSpeed="15.59" duration="87.00" routeLength="94.90" waitingTime="73.00" waitingCount="1" stopTime="0.00" timeLoss="81.00" rerouteNo="0" devices="tripinfo_106" vType="DEFAULT_VEHTYPE" speedFactor="1.00" vaporized=""/>
    <tripinfo id="30" depart="66.00" departLane="n2ton4_0" departPos="5.10" departSpeed="0.00" departDelay="36.00" arrival="196.00" arrivalLane="n4ton0_0" arrivalPos="39.60" arrivalSpeed="14.56" duration="130.00" routeLength="94.90" waitingTime="69.00" waitingCount="1" stopTime="0.00" timeLoss="123.53" rerouteNo="0" devices="tripinfo_30" vType="DEFAULT_VEHTYPE" speedFactor="0.98" vaporized=""/>
    <tripinfo id="120" depart="120.00" departLane="n0ton4_0" departPos="5.10" departSpeed="0.00" departDelay="0.00" arrival="196.00" arrivalLane="n4ton2_0" arrivalPos="39.60" arrivalSpeed="15.12" duration="76.00" routeLength="94.90" waitingTime="62.00" waitingCount="1" stopTime="0.00" timeLoss="69.18" rerouteNo="0" devices="tripinfo_120" vType="DEFAULT_VEHTYPE" speedFactor="1.01" vaporized=""/>
    <tripinfo id="38" depart="83.00" departLane="n2ton4_0" departPos="5.10" departSpeed="0.00" departDelay="45.00" arrival="198.00" arrivalLane="n4ton0_0" arrivalPos="39.60" arrivalSpeed="17.86" duration="115.00" routeLength="94.90" waitingTime="69.00" waitingCount="2" stopTime="0.00" timeLoss="108.88" rerouteNo="0" devices="tripinfo_38" vType="DEFAULT_VEHTYPE" speedFactor="1.13" vaporized=""/>
    <tripinfo id="44" depart="109.00" departLane="n2ton4_0" departPos="5.10" departSpeed="0.00" departDelay="65.00" arrival="199.00" arrivalLane="n4ton0_0" arrivalPos="39.60" arrivalSpeed="15.02" duration="90.00" routeLength="94.90" waitingTime="69.00" waitingCount="2" stopTime="0.00" timeLoss="83.87" rerouteNo="0" devices="tripinfo_44" vType="DEFAULT_VEHTYPE" speedFactor="1.01" vaporized=""/>
    <tripinfo id="133" depart="188.00" departLane="n0ton4_0" departPos="5.10" departSpeed="0.00" departDelay="55.00" arrival="199.00" arrivalLane="n4ton1_0" arrivalPos="39.60" arrivalSpeed="13.39" duration="11.00" routeLength="83.13" waitingTime="0.00" waitingCount="0" stopTime="0.00" timeLoss="5.34" rerouteNo="0" devices="tripinfo_133" vType="DEFAULT_VEHTYPE" speedFactor="1.10" vaporized=""/>
    <tripinfo id="45" depart="191.00" departLane="n2ton4_0" departPos="5.10" departSpeed="0.00" departDelay="146.00" arrival="201.00" arrivalLane="n4ton0_0" arrivalPos="39.60" arrivalSpeed="17.86" duration="10.00" routeLength="94.90" waitingTime="0.00" waitingCount="0" stopTime="0.00" timeLoss="4.25" rerouteNo="0" devices="tripinfo_45" vType="DEFAULT_VEHTYPE" speedFactor="1.17" vaporized=""/>
    <tripinfo id="163" depart="192.00" departLane="n0ton4_0" departPos="5.10" departSpeed="0.00" departDelay="29.00" arrival="202.00" arrivalLane="n4ton2_0" arrivalPos="39.60" arrivalSpeed="17.44" duration="10.00" routeLength="94.90" waitingTime="0.00" waitingCount="0" stopTime="0.00" timeLoss="4.01" rerouteNo="0" devices="tripinfo_163" vType="DEFAULT_VEHTYPE" speedFactor="1.10" vaporized=""/>
    <tripinfo id="0" depart="0.00" departLane="n2ton4_0" departPos="5.10" departSpeed="0.00" departDelay="0.00" arrival="203.00" arrivalLane="n4ton3_1" arrivalPos="39.60" arrivalSpeed="0.30" duration="203.00" routeLength="83.13" waitingTime="52.00" waitingCount="1" stopTime="0.00" timeLoss="197.26" rerouteNo="0" devices="tripinfo_0" vType="DEFAULT_VEHTYPE" speedFactor="1.06" vaporized=""/>
    <tripinfo id="64" depart="200.00" departLane="n2ton4_0" departPos="5.10" departSpeed="0.00" departDelay="136.00" arrival="229.00" arrivalLane="n4ton0_0" arrivalPos="39.60" arrivalSpeed="13.37" duration="29.00" routeLength="94.90" waitingTime="2.00" waitingCount="1" stopTime="0.00" timeLoss="22.15" rerouteNo="0" devices="tripinfo_64" vType="DEFAULT_VEHTYPE" speedFactor="0.88" vaporized=""/>
    <tripinfo id="7" depart="7.00" departLane="n2ton4_0" departPos="5.10" departSpeed="0.00" departDelay="0.00" arrival="230.00" arrivalLane="n4ton3_0" arrivalPos="39.60" arrivalSpeed="0.30" duration="223.00" routeLength="83.13" waitingTime="46.00" waitingCount="1" stopTime="0.00" timeLoss="215.74" rerouteNo="0" devices="tripinfo_7" vType="DEFAULT_VEHTYPE" speedFactor="0.83" vaporized=""/>
    <tripinfo id="72" depart="204.00" departLane="n2ton4_0" departPos="5.10" departSpeed="0.00" departDelay="132.00" arrival="232.00" arrivalLane="n4ton0_0" arrivalPos="39.60" arrivalSpeed="15.52" duration="28.00" routeLength="94.90" waitingTime="1.00" waitingCount="1" stopTime="0.00" timeLoss="21.38" rerouteNo="0" devices="tripinfo_72" vType="DEFAULT_VEHTYPE" speedFactor="1.00" vaporized=""/>
    <tripinfo id="78" depart="152.00" departLane="n3ton4_0" departPos="5.10" departSpeed="0.00" departDelay="74.00" arrival="235.00" arrivalLane="n4ton2_1" arrivalPos="39.60" arrivalSpeed="14.81" duration="83.00" routeLength="93.45" waitingTime="68.00" waitingCount="1" stopTime="0.00" timeLoss="76.21" rerouteNo="0" devices="tripinfo_78" vType="DEFAULT_VEHTYPE" speedFactor="1.02" vaporized=""/>
    <tripinfo id="80" depart="153.00" departLane="n3ton4_0" departPos="5.10" departSpeed="0.00" departDelay="73.00" arrival="237.00" arrivalLane="n4ton2_1" arrivalPos="39.60" arrivalSpeed="16.41" duration="84.00" routeLength="93.45" waitingTime="66.00" waitingCount="1" stopTime="0.00" timeLoss="77.30" rerouteNo="0" devices="tripinfo_80" vType="DEFAULT_VEHTYPE" speedFactor="1.08" vaporized=""/>