<?xml version="1.0" encoding="UTF-8"?>

<!-- generated on Tue Apr 28 23:41:49 2020 by Eclipse SUMO GUI Version 1.5.0
<configuration xmlns:xsi="http://www.w3.org/2001/XMLSchema-instance" xsi:noNamespaceSchemaLocation="http://sumo.dlr.de/xsd/sumoConfiguration.xsd">

    <input>
        <net-file value="my_net.net.xml"/>
        <route-files value="my_route.rou.xml"/>
        <additional-files value="demo.add.xml"/>
    </input>

    <output>
        <tripinfo-output value="tripinfo.xml"/>
    </output>

    <time>
        <begin value="0"/>
        <end value="2000"/>
    </time>

    <traci_server>
        <remote-port value="59706"/>
    </traci_server>

</configuration>
-->

<tripinfos xmlns:xsi="http://www.w3.org/2001/XMLSchema-instance" xsi:noNamespaceSchemaLocation="http://sumo.dlr.de/xsd/tripinfo_file.xsd">
    <tripinfo id="1" depart="1.00" departLane="n3ton4_0" departPos="5.10" departSpeed="0.00" departDelay="0.00" arrival="11.00" arrivalLane="n4ton1_0" arrivalPos="39.60" arrivalSpeed="14.84" duration="10.00" routeLength="94.90" waitingTime="0.00" waitingCount="0" stopTime="0.00" timeLoss="3.18" rerouteNo="0" devices="tripinfo_1" vType="DEFAULT_VEHTYPE" speedFactor="0.94" vaporized=""/>
    <tripinfo id="6" depart="6.00" departLane="n1ton4_0" departPos="5.10" departSpeed="0.00" departDelay="0.00" arrival="18.00" arrivalLane="n4ton2_0" arrivalPos="39.60" arrivalSpeed="15.14" duration="12.00" routeLength="83.13" waitingTime="0.00" waitingCount="0" stopTime="0.00" timeLoss="5.37" rerouteNo="0" devices="tripinfo_6" vType="DEFAULT_VEHTYPE" speedFactor="1.03" vaporized=""/>
    <tripinfo id="12" depart="15.00" departLane="n1ton4_0" departPos="5.10" departSpeed="0.00" departDelay="3.00" arrival="27.00" arrivalLane="n4ton2_0" arrivalPos="39.60" arrivalSpeed="12.77" duration="12.00" routeLength="83.13" waitingTime="0.00" waitingCount="0" stopTime="0.00" timeLoss="5.22" rerouteNo="0" devices="tripinfo_12" vType="DEFAULT_VEHTYPE" speedFactor="0.86" vaporized=""/>
    <tripinfo id="15" depart="18.00" departLane="n1ton4_0" departPos="5.10" departSpeed="0.00" departDelay="3.00" arrival="29.00" arrivalLane="n4ton3_0" arrivalPos="39.60" arrivalSpeed="15.16" duration="11.00" routeLength="94.90" waitingTime="0.00" waitingCount="0" stopTime="0.00" timeLoss="5.04" rerouteNo="0" devices="tripinfo_15" vType="DEFAULT_VEHTYPE" speedFactor="1.03" vaporized=""/>
    <tripinfo id="20" depart="22.00" departLane="n1ton4_0" departPos="5.10" departSpeed="0.00" departDelay="2.00" arrival="33.00" arrivalLane="n4ton3_0" arrivalPos="39.60" arrivalSpeed="12.97" duration="11.00" routeLength="94.90" waitingTime="0.00" waitingCount="0" stopTime="0.00" timeLoss="3.91" rerouteNo="0" devices="tripinfo_20" vType="DEFAULT_VEHTYPE" speedFactor="0.88" vaporized=""/>
    <tripinfo id="32" depart="32.00" departLane="n1ton4_0" departPos="5.10" departSpeed="0.00" departDelay="0.00" arrival="43.00" arrivalLane="n4ton3_0" arrivalPos="39.60" arrivalSpeed="14.09" duration="11.00" routeLength="94.90" waitingTime="0.00" waitingCount="0" stopTime="0.00" timeLoss="3.77" rerouteNo="0" devices="tripinfo_32" vType="DEFAULT_VEHTYPE" speedFactor="0.89" vaporized=""/>
    <tripinfo id="35" depart="35.00" departLane="n1ton4_0" departPos="5.10" departSpeed="0.00" departDelay="0.00" arrival="48.00" arrivalLane="n4ton2_0" arrivalPos="39.60" arrivalSpeed="13.43" duration="13.00" routeLength="83.13" waitingTime="0.00" waitingCount="0" stopTime="0.00" timeLoss="5.59" rerouteNo="0" devices="tripinfo_35" vType="DEFAULT_VEHTYPE" speedFactor="0.87" vaporized=""/>
    <tripinfo id="39" depart="39.00" departLane="n1ton4_0" departPos="5.10" departSpeed="0.00" departDelay="0.00" arrival="49.00" arrivalLane="n4ton3_0" arrivalPos="39.60" arrivalSpeed="14.48" duration="10.00" routeLength="94.90" waitingTime="0.00" waitingCount="0" stopTime="0.00" timeLoss="3.40" rerouteNo="0" devices="tripinfo_39" vType="DEFAULT_VEHTYPE" speedFactor="0.93" vaporized=""/>
    <tripinfo id="14" depart="14.00" departLane="n0ton4_0" departPos="5.10" departSpeed="0.00" departDelay="0.00" arrival="55.00" arrivalLane="n4ton3_1" arrivalPos="39.60" arrivalSpeed="17.14" duration="41.00" routeLength="93.45" waitingTime="26.00" waitingCount="1" stopTime="0.00" timeLoss="34.22" rerouteNo="0" devices="tripinfo_14" vType="DEFAULT_VEHTYPE" speedFactor="1.09" vaporized=""/>
    <tripinfo id="27" depart="29.00" departLane="n2ton4_0" departPos="5.10" departSpeed="0.00" departDelay="2.00" arrival="55.00" arrivalLane="n4ton1_1" arrivalPos="39.60" arrivalSpeed="14.26" duration="26.00" routeLength="93.45" waitingTime="10.00" waitingCount="1" stopTime="0.00" timeLoss="19.47" rerouteNo="0" devices="tripinfo_27" vType="DEFAULT_VEHTYPE" speedFactor="1.02" vaporized=""/>
    <tripinfo id="34" depart="34.00" departLane="n0ton4_0" departPos="5.10" departSpeed="0.00" departDelay="0.00" arrival="58.00" arrivalLane="n4ton3_1" arrivalPos="39.60" arrivalSpeed="12.45" duration="24.00" routeLength="93.45" waitingTime="7.00" waitingCount="1" stopTime="0.00" timeLoss="15.10" rerouteNo="0" devices="tripinfo_34" vType="DEFAULT_VEHTYPE" speedFactor="0.83" vaporized=""/>
    <tripinfo id="37" depart="39.00" departLane="n0ton4_0" departPos="5.10" departSpeed="0.00" departDelay="2.00" arrival="59.00" arrivalLane="n4ton3_1" arrivalPos="39.60" arrivalSpeed="14.77" duration="20.00" routeLength="93.45" waitingTime="4.00" waitingCount="1" stopTime="0.00" timeLoss="12.72" rerouteNo="0" devices="tripinfo_37" vType="DEFAULT_VEHTYPE" speedFactor="0.95" vaporized=""/>
    <tripinfo id="2" depart="2.00" departLane="n0ton4_0" departPos="5.10" departSpeed="0.00" departDelay="0.00" arrival="61.00" arrivalLane="n4ton1_0" arrivalPos="39.60" arrivalSpeed="13.80" duration="59.00" routeLength="83.13" waitingTime="44.00" waitingCount="1" stopTime="0.00" timeLoss="53.09" rerouteNo="0" devices="tripinfo_2" vType="DEFAULT_VEHTYPE" speedFactor="1.01" vaporized=""/>
    <tripinfo id="3" depart="5.00" departLane="n0ton4_0" departPos="5.10" departSpeed="0.00" departDelay="2.00" arrival="64.00" arrivalLane="n4ton1_0" arrivalPos="39.60" arrivalSpeed="14.60" duration="59.00" routeLength="83.13" waitingTime="43.00" waitingCount="1" stopTime="0.00" timeLoss="52.62" rerouteNo="0" devices="tripinfo_3" vType="DEFAULT_VEHTYPE" speedFactor="1.08" vaporized=""/>
    <tripinfo id="0" depart="0.00" departLane="n2ton4_0" departPos="5.10" departSpeed="0.00" departDelay="0.00" arrival="66.00" arrivalLane="n4ton3_0" arrivalPos="39.60" arrivalSpeed="14.32" duration="66.00" routeLength="83.13" waitingTime="52.00" waitingCount="1" stopTime="0.00" timeLoss="60.17" rerouteNo="0" devices="tripinfo_0" vType="DEFAULT_VEHTYPE" speedFactor="1.06" vaporized=""/>
    <tripinfo id="17" depart="17.00" departLane="n0ton4_0" departPos="5.10" departSpeed="0.00" departDelay="0.00" arrival="66.00" arrivalLane="n4ton1_0" arrivalPos="39.60" arrivalSpeed="15.84" duration="49.00" routeLength="83.13" waitingTime="33.00" waitingCount="1" stopTime="0.00" timeLoss="43.26" rerouteNo="0" devices="tripinfo_17" vType="DEFAULT_VEHTYPE" speedFactor="1.12" vaporized=""/>
    <tripinfo id="7" depart="7.00" departLane="n2ton4_0" departPos="5.10" departSpeed="0.00" departDelay="0.00" arrival="69.00" arrivalLane="n4ton3_0" arrivalPos="39.60" arrivalSpeed="13.21" duration="62.00" routeLength="83.13" waitingTime="46.00" waitingCount="1" stopTime="0.00" timeLoss="54.56" rerouteNo="0" devices="tripinfo_7" vType="DEFAULT_VEHTYPE" speedFactor="0.83" vaporized=""/>
    <tripinfo id="36" depart="36.00" departLane="n0ton4_0" departPos="5.10" departSpeed="0.00" departDelay="0.00" arrival="69.00" arrivalLane="n4ton1_0" arrivalPos="39.60" arrivalSpeed="12.76" duration="33.00" routeLength="83.13" waitingTime="16.00" waitingCount="1" stopTime="0.00" timeLoss="26.70" rerouteNo="0" devices="tripinfo_36" vType="DEFAULT_VEHTYPE" speedFactor="0.92" vaporized=""/>
    <tripinfo id="23" depart="23.00" departLane="n2ton4_0" departPos="5.10" departSpeed="0.00" departDelay="0.00" arrival="72.00" arrivalLane="n4ton3_0" arrivalPos="39.60" arrivalSpeed="14.42" duration="49.00" routeLength="83.13" waitingTime="33.00" waitingCount="1" stopTime="0.00" timeLoss="41.99" rerouteNo="0" devices="tripinfo_23" vType="DEFAULT_VEHTYPE" speedFactor="0.94" vaporized=""/>
    <tripinfo id="40" depart="40.00" departLane="n0ton4_0" departPos="5.10" departSpeed="0.00" departDelay="0.00" arrival="72.00" arrivalLane="n4ton2_0" arrivalPos="39.60" arrivalSpeed="16.70" duration="32.00" routeLength="94.90" waitingTime="15.00" waitingCount="1" stopTime="0.00" timeLoss="26.20" rerouteNo="0" devices="tripinfo_40" vType="DEFAULT_VEHTYPE" speedFactor="1.18" vaporized=""/>
    <tripinfo id="42" depart="61.00" departLane="n0ton4_0" departPos="5.10" departSpeed="0.00" departDelay="19.00" arrival="73.00" arrivalLane="n4ton2_0" arrivalPos="39.60" arrivalSpeed="16.33" duration="12.00" routeLength="94.90" waitingTime="0.00" waitingCount="0" stopTime="0.00" timeLoss="6.82" rerouteNo="0" devices="tripinfo_42" vType="DEFAULT_VEHTYPE" speedFactor="1.15" vaporized=""/>
    <tripinfo id="24" depart="26.00" departLane="n2ton4_0" departPos="5.10" departSpeed="0.00" departDelay="2.00" arrival="74.00" arrivalLane="n4ton0_0" arrivalPos="39.60" arrivalSpeed="16.31" duration="48.00" routeLength="94.90" waitingTime="31.00" waitingCount="1" stopTime="0.00" timeLoss="42.73" rerouteNo="0" devices="tripinfo_24" vType="DEFAULT_VEHTYPE" speedFactor="1.16" vaporized=""/>
    <tripinfo id="29" depart="30.00" departLane="n2ton4_0" departPos="5.10" departSpeed="0.00" departDelay="1.00" arrival="77.00" arrivalLane="n4ton3_0" arrivalPos="39.60" arrivalSpeed="12.76" duration="47.00" routeLength="83.13" waitingTime="31.00" waitingCount="1" stopTime="0.00" timeLoss="40.39" rerouteNo="0" devices="tripinfo_29" vType="DEFAULT_VEHTYPE" speedFactor="1.01" vaporized=""/>
    <tripinfo id="48" depart="65.00" departLane="n0ton4_0" departPos="5.10" departSpeed="0.00" departDelay="17.00" arrival="77.00" arrivalLane="n4ton1_0" arrivalPos="39.60" arrivalSpeed="12.75" duration="12.00" routeLength="83.13" waitingTime="0.00" waitingCount="0" stopTime="0.00" timeLoss="6.26" rerouteNo="0" devices="tripinfo_48" vType="DEFAULT_VEHTYPE" speedFactor="1.02" vaporized=""/>
    <tripinfo id="30" depart="66.00" departLane="n2ton4_0" departPos="5.10" departSpeed="0.00" departDelay="36.00" arrival="79.00" arrivalLane="n4ton0_0" arrivalPos="39.60" arrivalSpeed="14.40" duration="13.00" routeLength="94.90" waitingTime="0.00" waitingCount="0" stopTime="0.00" timeLoss="6.52" rerouteNo="0" devices="tripinfo_30" vType="DEFAULT_VEHTYPE" speedFactor="0.98" vaporized=""/>
    <tripinfo id="51" depart="68.00" departLane="n0ton4_0" departPos="5.10" departSpeed="0.00" departDelay="17.00" arrival="80.00" arrivalLane="n4ton2_0" arrivalPos="39.60" arrivalSpeed="16.96" duration="12.00" routeLength="94.90" waitingTime="0.00" waitingCount="0" stopTime="0.00" timeLoss="5.89" rerouteNo="0" devices="tripinfo_51" vType="DEFAULT_VEHTYPE" speedFactor="1.10" vaporized=""/>
    <tripinfo id="38" depart="69.00" departLane="n2ton4_0" departPos="5.10" departSpeed="0.00" departDelay="31.00" arrival="81.00" arrivalLane="n4ton0_0" arrivalPos="39.60" arrivalSpeed="17.56" duration="12.00" routeLength="94.90" waitingTime="0.00" waitingCount="0" stopTime="0.00" timeLoss="6.00" rerouteNo="0" devices="tripinfo_38" vType="DEFAULT_VEHTYPE" speedFactor="1.13" vaporized=""/>
    <tripinfo id="44" depart="72.00" departLane="n2ton4_0" departPos="5.10" departSpeed="0.00" departDelay="28.00" arrival="82.00" arrivalLane="n4ton0_0" arrivalPos="39.60" arrivalSpeed="15.95" duration="10.00" routeLength="94.90" waitingTime="0.00" waitingCount="0" stopTime="0.00" timeLoss="4.03" rerouteNo="0" devices="tripinfo_44" vType="DEFAULT_VEHTYPE" speedFactor="1.01" vaporized=""/>
    <tripinfo id="54" depart="71.00" departLane="n0ton4_0" departPos="5.10" departSpeed="0.00" departDelay="17.00" arrival="82.00" arrivalLane="n4ton2_0" arrivalPos="39.60" arrivalSpeed="14.04" duration="11.00" routeLength="94.90" waitingTime="0.00" waitingCount="0" stopTime="0.00" timeLoss="3.90" rerouteNo="0" devices="tripinfo_54" vType="DEFAULT_VEHTYPE" speedFactor="0.96" vaporized=""/>
    <tripinfo id="55" depart="74.00" departLane="n0ton4_0" departPos="5.10" departSpeed="0.00" departDelay="19.00" arrival="84.00" arrivalLane="n4ton2_0" arrivalPos="39.60" arrivalSpeed="16.52" duration="10.00" routeLength="94.90" waitingTime="0.00" waitingCount="0" stopTime="0.00" timeLoss="4.08" rerouteNo="0" devices="tripinfo_55" vType="DEFAULT_VEHTYPE" speedFactor="1.09" vaporized=""/>
    <tripinfo id="45" depart="75.00" departLane="n2ton4_0" departPos="5.10" departSpeed="0.00" departDelay="30.00" arrival="85.00" arrivalLane="n4ton0_0" arrivalPos="39.60" arrivalSpeed="18.63" duration="10.00" routeLength="94.90" waitingTime="0.00" waitingCount="0" stopTime="0.00" timeLoss="4.10" rerouteNo="0" devices="tripinfo_45" vType="DEFAULT_VEHTYPE" speedFactor="1.17" vaporized=""/>
    <tripinfo id="50" depart="78.00" departLane="n2ton4_0" departPos="5.10" departSpeed="0.00" departDelay="28.00" arrival="89.00" arrivalLane="n4ton3_0" arrivalPos="39.60" arrivalSpeed="14.56" duration="11.00" routeLength="83.13" waitingTime="0.00" waitingCount="0" stopTime="0.00" timeLoss="5.60" rerouteNo="0" devices="tripinfo_50" vType="DEFAULT_VEHTYPE" speedFactor="1.18" vaporized=""/>
    <tripinfo id="58" depart="77.00" departLane="n0ton4_0" departPos="5.10" departSpeed="0.00" departDelay="19.00" arrival="89.00" arrivalLane="n4ton1_0" arrivalPos="39.60" arrivalSpeed="13.40" duration="12.00" routeLength="83.13" waitingTime="0.00" waitingCount="0" stopTime="0.00" timeLoss="6.07" rerouteNo="0" devices="tripinfo_58" vType="DEFAULT_VEHTYPE" speedFactor="1.04" vaporized=""/>
    <tripinfo id="63" depart="80.00" departLane="n0ton4_0" departPos="5.10" departSpeed="0.00" departDelay="17.00" arrival="91.00" arrivalLane="n4ton2_0" arrivalPos="39.60" arrivalSpeed="13.52" duration="11.00" routeLength="94.90" waitingTime="0.00" waitingCount="0" stopTime="0.00" timeLoss="4.03" rerouteNo="0" devices="tripinfo_63" vType="DEFAULT_VEHTYPE" speedFactor="0.90" vaporized=""/>
    <tripinfo id="56" depart="81.00" departLane="n2ton4_0" departPos="5.10" departSpeed="0.00" departDelay="25.00" arrival="93.00" arrivalLane="n4ton3_0" arrivalPos="39.60" arrivalSpeed="14.55" duration="12.00" routeLength="83.13" waitingTime="0.00" waitingCount="0" stopTime="0.00" timeLoss="5.11" rerouteNo="0" devices="tripinfo_56" vType="DEFAULT_VEHTYPE" speedFactor="1.04" vaporized=""/>
    <tripinfo id="65" depart="83.00" departLane="n0ton4_0" departPos="5.10" departSpeed="0.00" departDelay="18.00" arrival="94.00" arrivalLane="n4ton2_0" arrivalPos="39.60" arrivalSpeed="12.37" duration="11.00" routeLength="94.90" waitingTime="0.00" waitingCount="0" stopTime="0.00" timeLoss="3.98" rerouteNo="0" devices="tripinfo_65" vType="DEFAULT_VEHTYPE" speedFactor="0.85" vaporized=""/>
    <tripinfo id="64" depart="84.00" departLane="n2ton4_0" departPos="5.10" departSpeed="0.00" departDelay="20.00" arrival="95.00" arrivalLane="n4ton0_0" arrivalPos="39.60" arrivalSpeed="13.12" duration="11.00" routeLength="94.90" waitingTime="0.00" waitingCount="0" stopTime="0.00" timeLoss="3.33" rerouteNo="0" devices="tripinfo_64" vType="DEFAULT_VEHTYPE" speedFactor="0.88" vaporized=""/>
    <tripinfo id="72" depart="88.00" departLane="n2ton4_0" departPos="5.10" departSpeed="0.00" departDelay="16.00" arrival="98.00" arrivalLane="n4ton0_0" arrivalPos="39.60" arrivalSpeed="15.32" duration="10.00" routeLength="94.90" waitingTime="0.00" waitingCount="0" stopTime="0.00" timeLoss="3.44" rerouteNo="0" devices="tripinfo_72" vType="DEFAULT_VEHTYPE" speedFactor="1.00" vaporized=""/>
    <tripinfo id="85" depart="88.00" departLane="n0ton4_0" departPos="5.10" departSpeed="0.00" departDelay="3.00" arrival="99.00" arrivalLane="n4ton2_0" arrivalPos="39.60" arrivalSpeed="14.86" duration="11.00" routeLength="94.90" waitingTime="0.00" waitingCount="0" stopTime="0.00" timeLoss="3.74" rerouteNo="0" devices="tripinfo_85" vType="DEFAULT_VEHTYPE" speedFactor="0.94" vaporized=""/>
    <tripinfo id="77" depart="91.00" departLane="n2ton4_0" departPos="5.10" departSpeed="0.00" departDelay="14.00" arrival="102.00" arrivalLane="n4ton3_0" arrivalPos="39.60" arrivalSpeed="13.35" duration="11.00" routeLength="83.13" waitingTime="0.00" waitingCount="0" stopTime="0.00" timeLoss="5.39" rerouteNo="0" devices="tripinfo_77" vType="DEFAULT_VEHTYPE" speedFactor="1.14" vaporized=""/>
    <tripinfo id="86" depart="94.00" departLane="n2ton4_0" departPos="5.10" departSpeed="0.00" departDelay="8.00" arrival="107.00" arrivalLane="n4ton3_0" arrivalPos="39.60" arrivalSpeed="11.32" duration="13.00" routeLength="83.13" waitingTime="0.00" waitingCount="0" stopTime="0.00" timeLoss="6.12" rerouteNo="0" devices="tripinfo_86" vType="DEFAULT_VEHTYPE" speedFactor="0.88" vaporized=""/>
    <tripinfo id="8" depart="9.00" departLane="n1ton4_0" departPos="5.10" departSpeed="0.00" departDelay="1.00" arrival="109.00" arrivalLane="n4ton0_1" arrivalPos="39.60" arrivalSpeed="14.63" duration="100.00" routeLength="93.45" waitingTime="83.00" waitingCount="1" stopTime="0.00" timeLoss="93.43" rerouteNo="0" devices="tripinfo_8" vType="DEFAULT_VEHTYPE" speedFactor="1.05" vaporized=""/>
    <tripinfo id="9" depart="10.00" departLane="n1ton4_0" departPos="5.10" departSpeed="0.00" departDelay="1.00" arrival="112.00" arrivalLane="n4ton0_1" arrivalPos="39.60" arrivalSpeed="12.92" duration="102.00" routeLength="93.45" waitingTime="84.00" waitingCount="1" stopTime="0.00" timeLoss="94.25" rerouteNo="0" devices="tripinfo_9" vType="DEFAULT_VEHTYPE" speedFactor="0.89" vaporized=""/>
    <tripinfo id="10" depart="13.00" departLane="n1ton4_0" departPos="5.10" departSpeed="0.00" departDelay="3.00" arrival="114.00" arrivalLane="n4ton0_1" arrivalPos="39.60" arrivalSpeed="13.73" duration="101.00" routeLength="93.45" waitingTime="83.00" waitingCount="1" stopTime="0.00" timeLoss="93.38" rerouteNo="0" devices="tripinfo_10" vType="DEFAULT_VEHTYPE" speedFactor="0.94" vaporized=""/>
    <tripinfo id="52" depart="52.00" departLane="n1ton4_0" departPos="5.10" departSpeed="0.00" departDelay="0.00" arrival="114.00" arrivalLane="n4ton2_0" arrivalPos="39.60" arrivalSpeed="14.09" duration="62.00" routeLength="83.13" waitingTime="48.00" waitingCount="1" stopTime="0.00" timeLoss="55.14" rerouteNo="0" devices="tripinfo_52" vType="DEFAULT_VEHTYPE" speedFactor="0.90" vaporized=""/>
    <tripinfo id="67" depart="67.00" departLane="n1ton4_0" departPos="5.10" departSpeed="0.00" departDelay="0.00" arrival="117.00" arrivalLane="n4ton3_0" arrivalPos="39.60" arrivalSpeed="16.54" duration="50.00" routeLength="94.90" waitingTime="34.00" waitingCount="1" stopTime="0.00" timeLoss="44.72" rerouteNo="0" devices="tripinfo_67" vType="DEFAULT_VEHTYPE" speedFactor="1.17" vaporized=""/>
    <tripinfo id="79" depart="79.00" departLane="n1ton4_0" departPos="5.10" departSpeed="0.00" departDelay="0.00" arrival="117.00" arrivalLane="n4ton0_1" arrivalPos="39.60" arrivalSpeed="13.10" duration="38.00" routeLength="93.45" waitingTime="22.00" waitingCount="1" stopTime="0.00" timeLoss="31.13" rerouteNo="0" devices="tripinfo_79" vType="DEFAULT_VEHTYPE" speedFactor="0.97" vaporized=""/>
    <tripinfo id="18" depart="21.00" departLane="n1ton4_0" departPos="5.10" departSpeed="0.00" departDelay="3.00" arrival="119.00" arrivalLane="n4ton0_1" arrivalPos="39.60" arrivalSpeed="14.89" duration="98.00" routeLength="93.45" waitingTime="82.00" waitingCount="1" stopTime="0.00" timeLoss="91.08" rerouteNo="0" devices="tripinfo_18" vType="DEFAULT_VEHTYPE" speedFactor="0.99" vaporized=""/>
    <tripinfo id="88" depart="88.00" departLane="n1ton4_0" departPos="5.10" departSpeed="0.00" departDelay="0.00" arrival="120.00" arrivalLane="n4ton2_0" arrivalPos="39.60" arrivalSpeed="14.51" duration="32.00" routeLength="83.13" waitingTime="15.00" waitingCount="1" stopTime="0.00" timeLoss="24.80" rerouteNo="0" devices="tripinfo_88" vType="DEFAULT_VEHTYPE" speedFactor="0.91" vaporized=""/>
    <tripinfo id="68" depart="70.00" departLane="n1ton4_0" departPos="5.10" departSpeed="0.00" departDelay="2.00" arrival="121.00" arrivalLane="n4ton0_1" arrivalPos="39.60" arrivalSpeed="14.14" duration="51.00" routeLength="93.45" waitingTime="34.00" waitingCount="1" stopTime="0.00" timeLoss="44.48" rerouteNo="0" devices="tripinfo_68" vType="DEFAULT_VEHTYPE" speedFactor="1.02" vaporized=""/>
    <tripinfo id="90" depart="91.00" departLane="n1ton4_0" departPos="5.10" departSpeed="0.00" departDelay="1.00" arrival="123.00" arrivalLane="n4ton2_0" arrivalPos="39.60" arrivalSpeed="13.24" duration="32.00" routeLength="83.13" waitingTime="13.00" waitingCount="1" stopTime="0.00" timeLoss="25.61" rerouteNo="0" devices="tripinfo_90" vType="DEFAULT_VEHTYPE" speedFactor="1.04" vaporized=""/>
    <tripinfo id="91" depart="111.00" departLane="n1ton4_0" departPos="5.10" departSpeed="0.00" departDelay="20.00" arrival="124.00" arrivalLane="n4ton0_1" arrivalPos="39.60" arrivalSpeed="13.90" duration="13.00" routeLength="93.45" waitingTime="0.00" waitingCount="0" stopTime="0.00" timeLoss="6.35" rerouteNo="0" devices="tripinfo_91" vType="DEFAULT_VEHTYPE" speedFactor="1.02" vaporized=""/>
    <tripinfo id="93" depart="113.00" departLane="n1ton4_0" departPos="5.10" departSpeed="0.00" departDelay="20.00" arrival="126.00" arrivalLane="n4ton0_1" arrivalPos="39.60" arrivalSpeed="14.49" duration="13.00" routeLength="93.45" waitingTime="1.00" waitingCount="1" stopTime="0.00" timeLoss="6.13" rerouteNo="0" devices="tripinfo_93" vType="DEFAULT_VEHTYPE" speedFactor="0.97" vaporized=""/>
    <tripinfo id="111" depart="119.00" departLane="n1ton4_0" departPos="5.10" departSpeed="0.00" departDelay="8.00" arrival="128.00" arrivalLane="n4ton3_0" arrivalPos="39.60" arrivalSpeed="17.70" duration="9.00" routeLength="94.90" waitingTime="0.00" waitingCount="0" stopTime="0.00" timeLoss="3.66" rerouteNo="0" devices="tripinfo_111" vType="DEFAULT_VEHTYPE" speedFactor="1.15" vaporized=""/>
    <tripinfo id="94" depart="115.00" departLane="n1ton4_0" departPos="5.10" departSpeed="0.00" departDelay="21.00" arrival="130.00" arrivalLane="n4ton0_1" arrivalPos="39.60" arrivalSpeed="14.21" duration="15.00" routeLength="93.45" waitingTime="0.00" waitingCount="0" stopTime="0.00" timeLoss="7.33" rerouteNo="0" devices="tripinfo_94" vType="DEFAULT_VEHTYPE" speedFactor="0.94" vaporized=""/>
    <tripinfo id="101" depart="118.00" departLane="n1ton4_0" departPos="5.10" departSpeed="0.00" departDelay="17.00" arrival="132.00" arrivalLane="n4ton0_1" arrivalPos="39.60" arrivalSpeed="14.66" duration="14.00" routeLength="93.45" waitingTime="0.00" waitingCount="0" stopTime="0.00" timeLoss="6.49" rerouteNo="0" devices="tripinfo_101" vType="DEFAULT_VEHTYPE" speedFactor="0.98" vaporized=""/>
    <tripinfo id="112" depart="122.00" departLane="n1ton4_0" departPos="5.10" departSpeed="0.00" departDelay="10.00" arrival="132.00" arrivalLane="n4ton3_0" arrivalPos="39.60" arrivalSpeed="15.23" duration="10.00" routeLength="94.90" waitingTime="0.00" waitingCount="0" stopTime="0.00" timeLoss="3.24" rerouteNo="0" devices="tripinfo_112" vType="DEFAULT_VEHTYPE" speedFactor="0.98" vaporized=""/>
    <tripinfo id="123" depart="124.00" departLane="n1ton4_0" departPos="5.10" departSpeed="0.00" departDelay="1.00" arrival="135.00" arrivalLane="n4ton3_0" arrivalPos="39.60" arrivalSpeed="14.15" duration="11.00" routeLength="94.90" waitingTime="0.00" waitingCount="0" stopTime="0.00" timeLoss="4.10" rerouteNo="0" devices="tripinfo_123" vType="DEFAULT_VEHTYPE" speedFactor="0.89" vaporized=""/>
    <tripinfo id="16" depart="16.00" departLane="n3ton4_0" departPos="5.10" departSpeed="0.00" departDelay="0.00" arrival="140.00" arrivalLane="n4ton0_0" arrivalPos="39.60" arrivalSpeed="14.14" duration="124.00" routeLength="83.13" waitingTime="107.00" waitingCount="1" stopTime="0.00" timeLoss="117.39" rerouteNo="0" devices="tripinfo_16" vType="DEFAULT_VEHTYPE" speedFactor="1.05" vaporized=""/>
    <tripinfo id="125" depart="127.00" departLane="n1ton4_0" departPos="5.10" departSpeed="0.00" departDelay="2.00" arrival="140.00" arrivalLane="n4ton2_0" arrivalPos="39.60" arrivalSpeed="13.47" duration="13.00" routeLength="83.13" waitingTime="0.00" waitingCount="0" stopTime="0.00" timeLoss="5.78" rerouteNo="0" devices="tripinfo_125" vType="DEFAULT_VEHTYPE" speedFactor="0.92" vaporized=""/>
    <tripinfo id="127" depart="131.00" departLane="n1ton4_0" departPos="5.10" departSpeed="0.00" departDelay="4.00" arrival="141.00" arrivalLane="n4ton3_0" arrivalPos="39.60" arrivalSpeed="16.87" duration="10.00" routeLength="94.90" waitingTime="0.00" waitingCount="0" stopTime="0.00" timeLoss="4.08" rerouteNo="0" devices="tripinfo_127" vType="DEFAULT_VEHTYPE" speedFactor="1.09" vaporized=""/>
    <tripinfo id="19" depart="19.00" departLane="n3ton4_0" departPos="5.10" departSpeed="0.00" departDelay="0.00" arrival="142.00" arrivalLane="n4ton0_0" arrivalPos="39.60" arrivalSpeed="13.89" duration="123.00" routeLength="83.13" waitingTime="106.00" waitingCount="1" stopTime="0.00" timeLoss="115.98" rerouteNo="0" devices="tripinfo_19" vType="DEFAULT_VEHTYPE" speedFactor="0.93" vaporized=""/>
    <tripinfo id="22" depart="22.00" departLane="n3ton4_0" departPos="5.10" departSpeed="0.00" departDelay="0.00" arrival="144.00" arrivalLane="n4ton1_0" arrivalPos="39.60" arrivalSpeed="14.24" duration="122.00" routeLength="94.90" waitingTime="106.00" waitingCount="1" stopTime="0.00" timeLoss="115.45" rerouteNo="0" devices="tripinfo_22" vType="DEFAULT_VEHTYPE" speedFactor="0.94" vaporized=""/>
    <tripinfo id="129" depart="134.00" departLane="n1ton4_0" departPos="5.10" departSpeed="0.00" departDelay="5.00" arrival="146.00" arrivalLane="n4ton2_0" arrivalPos="39.60" arrivalSpeed="14.66" duration="12.00" routeLength="83.13" waitingTime="0.00" waitingCount="0" stopTime="0.00" timeLoss="5.77" rerouteNo="0" devices="tripinfo_129" vType="DEFAULT_VEHTYPE" speedFactor="1.01" vaporized=""/>
    <tripinfo id="49" depart="49.00" departLane="n3ton4_0" departPos="5.10" departSpeed="0.00" departDelay="0.00" arrival="147.00" arrivalLane="n4ton0_0" arrivalPos="39.60" arrivalSpeed="14.74" duration="98.00" routeLength="83.13" waitingTime="82.00" waitingCount="1" stopTime="0.00" timeLoss="91.64" rerouteNo="0" devices="tripinfo_49" vType="DEFAULT_VEHTYPE" speedFactor="0.97" vaporized=""/>
    <tripinfo id="132" depart="137.00" departLane="n1ton4_0" departPos="5.10" departSpeed="0.00" departDelay="5.00" arrival="149.00" arrivalLane="n4ton2_0" arrivalPos="39.60" arrivalSpeed="13.92" duration="12.00" routeLength="83.13" waitingTime="0.00" waitingCount="0" stopTime="0.00" timeLoss="5.68" rerouteNo="0" devices="tripinfo_132" vType="DEFAULT_VEHTYPE" speedFactor="1.12" vaporized=""/>
    <tripinfo id="53" depart="53.00" departLane="n3ton4_0" departPos="5.10" departSpeed="0.00" departDelay="0.00" arrival="150.00" arrivalLane="n4ton0_0" arrivalPos="39.60" arrivalSpeed="12.84" duration="97.00" routeLength="83.13" waitingTime="80.00" waitingCount="1" stopTime="0.00" timeLoss="90.63" rerouteNo="0" devices="tripinfo_53" vType="DEFAULT_VEHTYPE" speedFactor="1.03" vaporized=""/>
    <tripinfo id="61" depart="139.00" departLane="n3ton4_0" departPos="5.10" departSpeed="0.00" departDelay="78.00" arrival="152.00" arrivalLane="n4ton0_0" arrivalPos="39.60" arrivalSpeed="13.52" duration="13.00" routeLength="83.13" waitingTime="0.00" waitingCount="0" stopTime="0.00" timeLoss="7.38" rerouteNo="0" devices="tripinfo_61" vType="DEFAULT_VEHTYPE" speedFactor="1.09" vaporized=""/>
    <tripinfo id="136" depart="140.00" departLane="n1ton4_0" departPos="5.10" departSpeed="0.00" departDelay="4.00" arrival="152.00" arrivalLane="n4ton2_0" arrivalPos="39.60" arrivalSpeed="14.24" duration="12.00" routeLength="83.13" waitingTime="0.00" waitingCount="0" stopTime="0.00" timeLoss="4.85" rerouteNo="0" devices="tripinfo_136" vType="DEFAULT_VEHTYPE" speedFactor="0.96" vaporized=""/>
    <tripinfo id="62" depart="142.00" departLane="n3ton4_0" departPos="5.10" departSpeed="0.00" departDelay="80.00" arrival="155.00" arrivalLane="n4ton0_0" arrivalPos="39.60" arrivalSpeed="12.50" duration="13.00" routeLength="83.13" waitingTime="0.00" waitingCount="0" stopTime="0.00" timeLoss="7.19" rerouteNo="0" devices="tripinfo_62" vType="DEFAULT_VEHTYPE" speedFactor="1.00" vaporized=""/>
    <tripinfo id="69" depart="146.00" departLane="n3ton4_0" departPos="5.10" departSpeed="0.00" departDelay="77.00" arrival="157.00" arrivalLane="n4ton1_0" arrivalPos="39.60" arrivalSpeed="16.77" duration="11.00" routeLength="94.90" waitingTime="0.00" waitingCount="0" stopTime="0.00" timeLoss="5.40" rerouteNo="0" devices="tripinfo_69" vType="DEFAULT_VEHTYPE" speedFactor="1.10" vaporized=""/>
    <tripinfo id="73" depart="149.00" departLane="n3ton4_0" departPos="5.10" departSpeed="0.00" departDelay="76.00" arrival="159.00" arrivalLane="n4ton1_0" arrivalPos="39.60" arrivalSpeed="13.38" duration="10.00" routeLength="94.90" waitingTime="0.00" waitingCount="0" stopTime="0.00" timeLoss="3.24" rerouteNo="0" devices="tripinfo_73" vType="DEFAULT_VEHTYPE" speedFactor="0.90" vaporized=""/>
    <tripinfo id="81" depart="156.00" departLane="n3ton4_0" departPos="5.10" departSpeed="0.00" departDelay="75.00" arrival="167.00" arrivalLane="n4ton0_0" arrivalPos="39.60" arrivalSpeed="14.34" duration="11.00" routeLength="83.13" waitingTime="0.00" waitingCount="0" stopTime="0.00" timeLoss="5.17" rerouteNo="0" devices="tripinfo_81" vType="DEFAULT_VEHTYPE" speedFactor="1.12" vaporized=""/>
    <tripinfo id="82" depart="159.00" departLane="n3ton4_0" departPos="5.10" departSpeed="0.00" departDelay="77.00" arrival="170.00" arrivalLane="n4ton0_0" arrivalPos="39.60" arrivalSpeed="14.17" duration="11.00" routeLength="83.13" waitingTime="0.00" waitingCount="0" stopTime="0.00" timeLoss="4.92" rerouteNo="0" devices="tripinfo_82" vType="DEFAULT_VEHTYPE" speedFactor="1.02" vaporized=""/>