<?xml version="1.0" encoding="UTF-8"?>

<!-- generated on Wed Apr 29 02:19:50 2020 by Eclipse SUMO GUI Version 1.5.0
<configuration xmlns:xsi="http://www.w3.org/2001/XMLSchema-instance" xsi:noNamespaceSchemaLocation="http://sumo.dlr.de/xsd/sumoConfiguration.xsd">

    <input>
        <net-file value="my_net.net.xml"/>
        <route-files value="my_route.rou.xml"/>
        <additional-files value="demo.add.xml"/>
    </input>

    <output>
        <tripinfo-output value="tripinfo.xml"/>
    </output>

    <time>
        <begin value="0"/>
        <end value="2000"/>
    </time>

    <traci_server>
        <remote-port value="61742"/>
    </traci_server>

</configuration>
-->

<tripinfos xmlns:xsi="http://www.w3.org/2001/XMLSchema-instance" xsi:noNamespaceSchemaLocation="http://sumo.dlr.de/xsd/tripinfo_file.xsd">
    <tripinfo id="1" depart="1.00" departLane="n1ton4_0" departPos="5.10" departSpeed="0.00" departDelay="0.00" arrival="13.00" arrivalLane="n4ton2_0" arrivalPos="39.60" arrivalSpeed="15.33" duration="12.00" routeLength="83.13" waitingTime="0.00" waitingCount="0" stopTime="0.00" timeLoss="5.44" rerouteNo="0" devices="tripinfo_1" vType="DEFAULT_VEHTYPE" speedFactor="1.06" vaporized=""/>
    <tripinfo id="3" depart="4.00" departLane="n1ton4_0" departPos="5.10" departSpeed="0.00" departDelay="1.00" arrival="16.00" arrivalLane="n4ton0_1" arrivalPos="39.60" arrivalSpeed="14.81" duration="12.00" routeLength="93.45" waitingTime="0.00" waitingCount="0" stopTime="0.00" timeLoss="4.58" rerouteNo="0" devices="tripinfo_3" vType="DEFAULT_VEHTYPE" speedFactor="1.01" vaporized=""/>
    <tripinfo id="5" depart="5.00" departLane="n1ton4_0" departPos="5.10" departSpeed="0.00" departDelay="0.00" arrival="17.00" arrivalLane="n4ton2_0" arrivalPos="39.60" arrivalSpeed="13.90" duration="12.00" routeLength="83.13" waitingTime="0.00" waitingCount="0" stopTime="0.00" timeLoss="5.91" rerouteNo="0" devices="tripinfo_5" vType="DEFAULT_VEHTYPE" speedFactor="1.03" vaporized=""/>
    <tripinfo id="8" depart="8.00" departLane="n1ton4_0" departPos="5.10" departSpeed="0.00" departDelay="0.00" arrival="21.00" arrivalLane="n4ton0_1" arrivalPos="39.60" arrivalSpeed="12.92" duration="13.00" routeLength="93.45" waitingTime="0.00" waitingCount="0" stopTime="0.00" timeLoss="4.52" rerouteNo="0" devices="tripinfo_8" vType="DEFAULT_VEHTYPE" speedFactor="0.89" vaporized=""/>
    <tripinfo id="9" depart="9.00" departLane="n1ton4_0" departPos="5.10" departSpeed="0.00" departDelay="0.00" arrival="22.00" arrivalLane="n4ton0_1" arrivalPos="39.60" arrivalSpeed="14.18" duration="13.00" routeLength="93.45" waitingTime="0.00" waitingCount="0" stopTime="0.00" timeLoss="6.00" rerouteNo="0" devices="tripinfo_9" vType="DEFAULT_VEHTYPE" speedFactor="0.94" vaporized=""/>
    <tripinfo id="10" depart="11.00" departLane="n1ton4_0" departPos="5.10" departSpeed="0.00" departDelay="1.00" arrival="24.00" arrivalLane="n4ton2_0" arrivalPos="39.60" arrivalSpeed="13.17" duration="13.00" routeLength="83.13" waitingTime="0.00" waitingCount="0" stopTime="0.00" timeLoss="5.52" rerouteNo="0" devices="tripinfo_10" vType="DEFAULT_VEHTYPE" speedFactor="0.86" vaporized=""/>
    <tripinfo id="12" depart="14.00" departLane="n1ton4_0" departPos="5.10" departSpeed="0.00" departDelay="2.00" arrival="25.00" arrivalLane="n4ton0_1" arrivalPos="39.60" arrivalSpeed="13.78" duration="11.00" routeLength="93.45" waitingTime="0.00" waitingCount="0" stopTime="0.00" timeLoss="4.68" rerouteNo="0" devices="tripinfo_12" vType="DEFAULT_VEHTYPE" speedFactor="1.09" vaporized=""/>
    <tripinfo id="4" depart="4.00" departLane="n3ton4_0" departPos="5.10" departSpeed="0.00" departDelay="0.00" arrival="33.00" arrivalLane="n4ton0_0" arrivalPos="39.60" arrivalSpeed="15.32" duration="29.00" routeLength="83.13" waitingTime="15.00" waitingCount="1" stopTime="0.00" timeLoss="23.03" rerouteNo="0" devices="tripinfo_4" vType="DEFAULT_VEHTYPE" speedFactor="1.08" vaporized=""/>
    <tripinfo id="20" depart="20.00" departLane="n3ton4_0" departPos="5.10" departSpeed="0.00" departDelay="0.00" arrival="36.00" arrivalLane="n4ton0_0" arrivalPos="39.60" arrivalSpeed="13.98" duration="16.00" routeLength="83.13" waitingTime="0.00" waitingCount="0" stopTime="0.00" timeLoss="8.51" rerouteNo="0" devices="tripinfo_20" vType="DEFAULT_VEHTYPE" speedFactor="0.88" vaporized=""/>
    <tripinfo id="24" depart="24.00" departLane="n1ton4_0" departPos="5.10" departSpeed="0.00" departDelay="0.00" arrival="36.00" arrivalLane="n4ton2_0" arrivalPos="39.60" arrivalSpeed="13.57" duration="12.00" routeLength="83.13" waitingTime="0.00" waitingCount="0" stopTime="0.00" timeLoss="6.21" rerouteNo="0" devices="tripinfo_24" vType="DEFAULT_VEHTYPE" speedFactor="1.02" vaporized=""/>
    <tripinfo id="25" depart="27.00" departLane="n3ton4_0" departPos="5.10" departSpeed="0.00" departDelay="2.00" arrival="39.00" arrivalLane="n4ton0_0" arrivalPos="39.60" arrivalSpeed="15.45" duration="12.00" routeLength="83.13" waitingTime="0.00" waitingCount="0" stopTime="0.00" timeLoss="5.06" rerouteNo="0" devices="tripinfo_25" vType="DEFAULT_VEHTYPE" speedFactor="1.01" vaporized=""/>
    <tripinfo id="28" depart="30.00" departLane="n3ton4_0" departPos="5.10" departSpeed="0.00" departDelay="2.00" arrival="42.00" arrivalLane="n4ton0_0" arrivalPos="39.60" arrivalSpeed="13.62" duration="12.00" routeLength="83.13" waitingTime="0.00" waitingCount="0" stopTime="0.00" timeLoss="5.56" rerouteNo="0" devices="tripinfo_28" vType="DEFAULT_VEHTYPE" speedFactor="0.89" vaporized=""/>
    <tripinfo id="29" depart="33.00" departLane="n3ton4_0" departPos="5.10" departSpeed="0.00" departDelay="4.00" arrival="46.00" arrivalLane="n4ton0_0" arrivalPos="39.60" arrivalSpeed="12.59" duration="13.00" routeLength="83.13" waitingTime="0.00" waitingCount="0" stopTime="0.00" timeLoss="5.47" rerouteNo="0" devices="tripinfo_29" vType="DEFAULT_VEHTYPE" speedFactor="0.83" vaporized=""/>
    <tripinfo id="37" depart="37.00" departLane="n1ton4_0" departPos="5.10" departSpeed="0.00" departDelay="0.00" arrival="47.00" arrivalLane="n4ton3_0" arrivalPos="39.60" arrivalSpeed="14.82" duration="10.00" routeLength="94.90" waitingTime="0.00" waitingCount="0" stopTime="0.00" timeLoss="4.04" rerouteNo="0" devices="tripinfo_37" vType="DEFAULT_VEHTYPE" speedFactor="1.01" vaporized=""/>
    <tripinfo id="45" depart="45.00" departLane="n3ton4_0" departPos="5.10" departSpeed="0.00" departDelay="0.00" arrival="56.00" arrivalLane="n4ton0_0" arrivalPos="39.60" arrivalSpeed="12.87" duration="11.00" routeLength="83.13" waitingTime="0.00" waitingCount="0" stopTime="0.00" timeLoss="4.62" rerouteNo="0" devices="tripinfo_45" vType="DEFAULT_VEHTYPE" speedFactor="0.90" vaporized=""/>
    <tripinfo id="47" depart="48.00" departLane="n3ton4_0" departPos="5.10" departSpeed="0.00" departDelay="1.00" arrival="58.00" arrivalLane="n4ton1_0" arrivalPos="39.60" arrivalSpeed="15.14" duration="10.00" routeLength="94.90" waitingTime="0.00" waitingCount="0" stopTime="0.00" timeLoss="3.41" rerouteNo="0" devices="tripinfo_47" vType="DEFAULT_VEHTYPE" speedFactor="0.96" vaporized=""/>
    <tripinfo id="51" depart="51.00" departLane="n3ton4_0" departPos="5.10" departSpeed="0.00" departDelay="0.00" arrival="61.00" arrivalLane="n4ton1_0" arrivalPos="39.60" arrivalSpeed="15.89" duration="10.00" routeLength="94.90" waitingTime="0.00" waitingCount="0" stopTime="0.00" timeLoss="3.99" rerouteNo="0" devices="tripinfo_51" vType="DEFAULT_VEHTYPE" speedFactor="1.04" vaporized=""/>
    <tripinfo id="59" depart="59.00" departLane="n3ton4_0" departPos="5.10" departSpeed="0.00" departDelay="0.00" arrival="71.00" arrivalLane="n4ton0_0" arrivalPos="39.60" arrivalSpeed="12.96" duration="12.00" routeLength="83.13" waitingTime="0.00" waitingCount="0" stopTime="0.00" timeLoss="5.02" rerouteNo="0" devices="tripinfo_59" vType="DEFAULT_VEHTYPE" speedFactor="0.90" vaporized=""/>
    <tripinfo id="22" depart="22.00" departLane="n2ton4_0" departPos="5.10" departSpeed="0.00" departDelay="0.00" arrival="76.00" arrivalLane="n4ton1_1" arrivalPos="39.60" arrivalSpeed="13.92" duration="54.00" routeLength="93.45" waitingTime="39.00" waitingCount="1" stopTime="0.00" timeLoss="46.75" rerouteNo="0" devices="tripinfo_22" vType="DEFAULT_VEHTYPE" speedFactor="0.94" vaporized=""/>
    <tripinfo id="7" depart="7.00" departLane="n2ton4_0" departPos="5.10" departSpeed="0.00" departDelay="0.00" arrival="81.00" arrivalLane="n4ton3_0" arrivalPos="39.60" arrivalSpeed="14.24" duration="74.00" routeLength="83.13" waitingTime="60.00" waitingCount="1" stopTime="0.00" timeLoss="68.13" rerouteNo="0" devices="tripinfo_7" vType="DEFAULT_VEHTYPE" speedFactor="1.05" vaporized=""/>
    <tripinfo id="2" depart="2.00" departLane="n0ton4_0" departPos="5.10" departSpeed="0.00" departDelay="0.00" arrival="82.00" arrivalLane="n4ton1_0" arrivalPos="39.60" arrivalSpeed="13.45" duration="80.00" routeLength="83.13" waitingTime="64.00" waitingCount="1" stopTime="0.00" timeLoss="73.55" rerouteNo="0" devices="tripinfo_2" vType="DEFAULT_VEHTYPE" speedFactor="0.94" vaporized=""/>
    <tripinfo id="13" depart="13.00" departLane="n2ton4_0" departPos="5.10" departSpeed="0.00" departDelay="0.00" arrival="84.00" arrivalLane="n4ton0_0" arrivalPos="39.60" arrivalSpeed="15.39" duration="71.00" routeLength="94.90" waitingTime="53.00" waitingCount="1" stopTime="0.00" timeLoss="64.47" rerouteNo="0" devices="tripinfo_13" vType="DEFAULT_VEHTYPE" speedFactor="1.03" vaporized=""/>
    <tripinfo id="16" depart="16.00" departLane="n0ton4_0" departPos="5.10" departSpeed="0.00" departDelay="0.00" arrival="85.00" arrivalLane="n4ton1_0" arrivalPos="39.60" arrivalSpeed="14.64" duration="69.00" routeLength="83.13" waitingTime="53.00" waitingCount="1" stopTime="0.00" timeLoss="62.65" rerouteNo="0" devices="tripinfo_16" vType="DEFAULT_VEHTYPE" speedFactor="1.12" vaporized=""/>
    <tripinfo id="14" depart="16.00" departLane="n2ton4_0" departPos="5.10" departSpeed="0.00" departDelay="2.00" arrival="87.00" arrivalLane="n4ton3_0" arrivalPos="39.60" arrivalSpeed="14.44" duration="71.00" routeLength="83.13" waitingTime="53.00" waitingCount="1" stopTime="0.00" timeLoss="64.31" rerouteNo="0" devices="tripinfo_14" vType="DEFAULT_VEHTYPE" speedFactor="1.05" vaporized=""/>
    <tripinfo id="19" depart="19.00" departLane="n0ton4_0" departPos="5.10" departSpeed="0.00" departDelay="0.00" arrival="87.00" arrivalLane="n4ton2_0" arrivalPos="39.60" arrivalSpeed="14.80" duration="68.00" routeLength="94.90" waitingTime="52.00" waitingCount="1" stopTime="0.00" timeLoss="61.00" rerouteNo="0" devices="tripinfo_19" vType="DEFAULT_VEHTYPE" speedFactor="0.93" vaporized=""/>
    <tripinfo id="17" depart="19.00" departLane="n2ton4_0" departPos="5.10" departSpeed="0.00" departDelay="2.00" arrival="89.00" arrivalLane="n4ton3_0" arrivalPos="39.60" arrivalSpeed="13.38" duration="70.00" routeLength="83.13" waitingTime="53.00" waitingCount="1" stopTime="0.00" timeLoss="63.47" rerouteNo="0" devices="tripinfo_17" vType="DEFAULT_VEHTYPE" speedFactor="0.99" vaporized=""/>
    <tripinfo id="31" depart="31.00" departLane="n0ton4_0" departPos="5.10" departSpeed="0.00" departDelay="0.00" arrival="90.00" arrivalLane="n4ton1_0" arrivalPos="39.60" arrivalSpeed="14.13" duration="59.00" routeLength="83.13" waitingTime="42.00" waitingCount="1" stopTime="0.00" timeLoss="51.61" rerouteNo="0" devices="tripinfo_31" vType="DEFAULT_VEHTYPE" speedFactor="0.92" vaporized=""/>
    <tripinfo id="26" depart="26.00" departLane="n2ton4_0" departPos="5.10" departSpeed="0.00" departDelay="0.00" arrival="92.00" arrivalLane="n4ton0_0" arrivalPos="39.60" arrivalSpeed="14.63" duration="66.00" routeLength="94.90" waitingTime="50.00" waitingCount="1" stopTime="0.00" timeLoss="59.14" rerouteNo="0" devices="tripinfo_26" vType="DEFAULT_VEHTYPE" speedFactor="0.98" vaporized=""/>
    <tripinfo id="32" depart="34.00" departLane="n0ton4_0" departPos="5.10" departSpeed="0.00" departDelay="2.00" arrival="93.00" arrivalLane="n4ton1_0" arrivalPos="39.60" arrivalSpeed="12.86" duration="59.00" routeLength="83.13" waitingTime="42.00" waitingCount="1" stopTime="0.00" timeLoss="52.20" rerouteNo="0" devices="tripinfo_32" vType="DEFAULT_VEHTYPE" speedFactor="0.95" vaporized=""/>
    <tripinfo id="34" depart="81.00" departLane="n0ton4_0" departPos="5.10" departSpeed="0.00" departDelay="47.00" arrival="96.00" arrivalLane="n4ton1_0" arrivalPos="39.60" arrivalSpeed="14.20" duration="15.00" routeLength="83.13" waitingTime="0.00" waitingCount="0" stopTime="0.00" timeLoss="7.97" rerouteNo="0" devices="tripinfo_34" vType="DEFAULT_VEHTYPE" speedFactor="0.93" vaporized=""/>
    <tripinfo id="38" depart="85.00" departLane="n2ton4_0" departPos="5.10" departSpeed="0.00" departDelay="47.00" arrival="96.00" arrivalLane="n4ton0_0" arrivalPos="39.60" arrivalSpeed="18.74" duration="11.00" routeLength="94.90" waitingTime="0.00" waitingCount="0" stopTime="0.00" timeLoss="5.22" rerouteNo="0" devices="tripinfo_38" vType="DEFAULT_VEHTYPE" speedFactor="1.17" vaporized=""/>
    <tripinfo id="40" depart="89.00" departLane="n2ton4_0" departPos="5.10" departSpeed="0.00" departDelay="49.00" arrival="99.00" arrivalLane="n4ton0_0" arrivalPos="39.60" arrivalSpeed="15.63" duration="10.00" routeLength="94.90" waitingTime="0.00" waitingCount="0" stopTime="0.00" timeLoss="3.68" rerouteNo="0" devices="tripinfo_40" vType="DEFAULT_VEHTYPE" speedFactor="1.02" vaporized=""/>
    <tripinfo id="53" depart="91.00" departLane="n0ton4_0" departPos="5.10" departSpeed="0.00" departDelay="38.00" arrival="100.00" arrivalLane="n4ton2_0" arrivalPos="39.60" arrivalSpeed="16.85" duration="9.00" routeLength="94.90" waitingTime="0.00" waitingCount="0" stopTime="0.00" timeLoss="3.45" rerouteNo="0" devices="tripinfo_53" vType="DEFAULT_VEHTYPE" speedFactor="1.09" vaporized=""/>
    <tripinfo id="56" depart="92.00" departLane="n2ton4_0" departPos="5.10" departSpeed="0.00" departDelay="36.00" arrival="104.00" arrivalLane="n4ton3_0" arrivalPos="39.60" arrivalSpeed="13.86" duration="12.00" routeLength="83.13" waitingTime="0.00" waitingCount="0" stopTime="0.00" timeLoss="5.82" rerouteNo="0" devices="tripinfo_56" vType="DEFAULT_VEHTYPE" speedFactor="1.00" vaporized=""/>
    <tripinfo id="63" depart="94.00" departLane="n0ton4_0" departPos="5.10" departSpeed="0.00" departDelay="31.00" arrival="105.00" arrivalLane="n4ton2_0" arrivalPos="39.60" arrivalSpeed="13.11" duration="11.00" routeLength="94.90" waitingTime="0.00" waitingCount="0" stopTime="0.00" timeLoss="3.64" rerouteNo="0" devices="tripinfo_63" vType="DEFAULT_VEHTYPE" speedFactor="0.85" vaporized=""/>
    <tripinfo id="72" depart="98.00" departLane="n0ton4_0" departPos="5.10" departSpeed="0.00" departDelay="26.00" arrival="108.00" arrivalLane="n4ton2_0" arrivalPos="39.60" arrivalSpeed="14.78" duration="10.00" routeLength="94.90" waitingTime="0.00" waitingCount="0" stopTime="0.00" timeLoss="3.82" rerouteNo="0" devices="tripinfo_72" vType="DEFAULT_VEHTYPE" speedFactor="1.00" vaporized=""/>
    <tripinfo id="6" depart="7.00" departLane="n3ton4_0" departPos="5.10" departSpeed="0.00" departDelay="1.00" arrival="125.00" arrivalLane="n4ton2_1" arrivalPos="39.60" arrivalSpeed="12.59" duration="118.00" routeLength="93.45" waitingTime="102.00" waitingCount="1" stopTime="0.00" timeLoss="109.77" rerouteNo="0" devices="tripinfo_6" vType="DEFAULT_VEHTYPE" speedFactor="0.83" vaporized=""/>
    <tripinfo id="21" depart="23.00" departLane="n3ton4_0" departPos="5.10" departSpeed="0.00" departDelay="2.00" arrival="127.00" arrivalLane="n4ton2_1" arrivalPos="39.60" arrivalSpeed="14.04" duration="104.00" routeLength="93.45" waitingTime="88.00" waitingCount="1" stopTime="0.00" timeLoss="96.36" rerouteNo="0" devices="tripinfo_21" vType="DEFAULT_VEHTYPE" speedFactor="0.94" vaporized=""/>
    <tripinfo id="23" depart="24.00" departLane="n3ton4_0" departPos="5.10" departSpeed="0.00" departDelay="1.00" arrival="129.00" arrivalLane="n4ton2_1" arrivalPos="39.60" arrivalSpeed="16.12" duration="105.00" routeLength="93.45" waitingTime="88.00" waitingCount="1" stopTime="0.00" timeLoss="98.31" rerouteNo="0" devices="tripinfo_23" vType="DEFAULT_VEHTYPE" speedFactor="1.16" vaporized=""/>
    <tripinfo id="36" depart="36.00" departLane="n3ton4_0" departPos="5.10" departSpeed="0.00" departDelay="0.00" arrival="131.00" arrivalLane="n4ton2_1" arrivalPos="39.60" arrivalSpeed="16.91" duration="95.00" routeLength="93.45" waitingTime="80.00" waitingCount="1" stopTime="0.00" timeLoss="88.47" rerouteNo="0" devices="tripinfo_36" vType="DEFAULT_VEHTYPE" speedFactor="1.15" vaporized=""/>
    <tripinfo id="62" depart="62.00" departLane="n3ton4_0" departPos="5.10" departSpeed="0.00" departDelay="0.00" arrival="131.00" arrivalLane="n4ton0_0" arrivalPos="39.60" arrivalSpeed="12.47" duration="69.00" routeLength="83.13" waitingTime="55.00" waitingCount="1" stopTime="0.00" timeLoss="61.72" rerouteNo="0" devices="tripinfo_62" vType="DEFAULT_VEHTYPE" speedFactor="0.85" vaporized=""/>
    <tripinfo id="68" depart="68.00" departLane="n3ton4_0" departPos="5.10" departSpeed="0.00" departDelay="0.00" arrival="133.00" arrivalLane="n4ton2_1" arrivalPos="39.60" arrivalSpeed="15.71" duration="65.00" routeLength="93.45" waitingTime="51.00" waitingCount="1" stopTime="0.00" timeLoss="58.51" rerouteNo="0" devices="tripinfo_68" vType="DEFAULT_VEHTYPE" speedFactor="1.10" vaporized=""/>
    <tripinfo id="79" depart="79.00" departLane="n3ton4_0" departPos="5.10" departSpeed="0.00" departDelay="0.00" arrival="133.00" arrivalLane="n4ton0_0" arrivalPos="39.60" arrivalSpeed="12.96" duration="54.00" routeLength="83.13" waitingTime="39.00" waitingCount="1" stopTime="0.00" timeLoss="48.55" rerouteNo="0" devices="tripinfo_79" vType="DEFAULT_VEHTYPE" speedFactor="1.08" vaporized=""/>
    <tripinfo id="81" depart="82.00" departLane="n3ton4_0" departPos="5.10" departSpeed="0.00" departDelay="1.00" arrival="135.00" arrivalLane="n4ton1_0" arrivalPos="39.60" arrivalSpeed="15.86" duration="53.00" routeLength="94.90" waitingTime="37.00" waitingCount="1" stopTime="0.00" timeLoss="47.00" rerouteNo="0" devices="tripinfo_81" vType="DEFAULT_VEHTYPE" speedFactor="1.02" vaporized=""/>
    <tripinfo id="92" depart="92.00" departLane="n3ton4_0" departPos="5.10" departSpeed="0.00" departDelay="0.00" arrival="137.00" arrivalLane="n4ton1_0" arrivalPos="39.60" arrivalSpeed="15.62" duration="45.00" routeLength="94.90" waitingTime="29.00" waitingCount="1" stopTime="0.00" timeLoss="38.81" rerouteNo="0" devices="tripinfo_92" vType="DEFAULT_VEHTYPE" speedFactor="1.02" vaporized=""/>
    <tripinfo id="94" depart="95.00" departLane="n3ton4_0" departPos="5.10" departSpeed="0.00" departDelay="1.00" arrival="138.00" arrivalLane="n4ton2_1" arrivalPos="39.60" arrivalSpeed="13.98" duration="43.00" routeLength="93.45" waitingTime="26.00" waitingCount="1" stopTime="0.00" timeLoss="34.77" rerouteNo="0" devices="tripinfo_94" vType="DEFAULT_VEHTYPE" speedFactor="0.94" vaporized=""/>
    <tripinfo id="101" depart="124.00" departLane="n3ton4_0" departPos="5.10" departSpeed="0.00" departDelay="23.00" arrival="140.00" arrivalLane="n4ton0_0" arrivalPos="39.60" arrivalSpeed="14.60" duration="16.00" routeLength="83.13" waitingTime="0.00" waitingCount="0" stopTime="0.00" timeLoss="9.86" rerouteNo="0" devices="tripinfo_101" vType="DEFAULT_VEHTYPE" speedFactor="1.03" vaporized=""/>
    <tripinfo id="102" depart="130.00" departLane="n3ton4_0" departPos="5.10" departSpeed="0.00" departDelay="28.00" arrival="141.00" arrivalLane="n4ton1_0" arrivalPos="39.60" arrivalSpeed="15.55" duration="11.00" routeLength="94.90" waitingTime="0.00" waitingCount="0" stopTime="0.00" timeLoss="4.74" rerouteNo="0" devices="tripinfo_102" vType="DEFAULT_VEHTYPE" speedFactor="0.98" vaporized=""/>
    <tripinfo id="41" depart="41.00" departLane="n1ton4_0" departPos="5.10" departSpeed="0.00" departDelay="0.00" arrival="144.00" arrivalLane="n4ton2_0" arrivalPos="39.60" arrivalSpeed="13.09" duration="103.00" routeLength="83.13" waitingTime="90.00" waitingCount="1" stopTime="0.00" timeLoss="96.83" rerouteNo="0" devices="tripinfo_41" vType="DEFAULT_VEHTYPE" speedFactor="0.97" vaporized=""/>
    <tripinfo id="42" depart="44.00" departLane="n1ton4_0" departPos="5.10" departSpeed="0.00" departDelay="2.00" arrival="146.00" arrivalLane="n4ton2_0" arrivalPos="39.60" arrivalSpeed="15.25" duration="102.00" routeLength="83.13" waitingTime="86.00" waitingCount="1" stopTime="0.00" timeLoss="96.63" rerouteNo="0" devices="tripinfo_42" vType="DEFAULT_VEHTYPE" speedFactor="1.18" vaporized=""/>
    <tripinfo id="103" depart="134.00" departLane="n3ton4_0" departPos="5.10" departSpeed="0.00" departDelay="31.00" arrival="146.00" arrivalLane="n4ton0_0" arrivalPos="39.60" arrivalSpeed="14.68" duration="12.00" routeLength="83.13" waitingTime="0.00" waitingCount="0" stopTime="0.00" timeLoss="5.84" rerouteNo="0" devices="tripinfo_103" vType="DEFAULT_VEHTYPE" speedFactor="1.01" vaporized=""/>
    <tripinfo id="107" depart="137.00" departLane="n3ton4_0" departPos="5.10" departSpeed="0.00" departDelay="30.00" arrival="147.00" arrivalLane="n4ton1_0" arrivalPos="39.60" arrivalSpeed="15.80" duration="10.00" routeLength="94.90" waitingTime="0.00" waitingCount="0" stopTime="0.00" timeLoss="4.01" rerouteNo="0" devices="tripinfo_107" vType="DEFAULT_VEHTYPE" speedFactor="1.02" vaporized=""/>
    <tripinfo id="44" depart="47.00" departLane="n1ton4_0" departPos="5.10" departSpeed="0.00" departDelay="3.00" arrival="148.00" arrivalLane="n4ton3_0" arrivalPos="39.60" arrivalSpeed="16.42" duration="101.00" routeLength="94.90" waitingTime="84.00" waitingCount="1" stopTime="0.00" timeLoss="95.58" rerouteNo="0" devices="tripinfo_44" vType="DEFAULT_VEHTYPE" speedFactor="1.10" vaporized=""/>
    <tripinfo id="48" depart="50.00" departLane="n1ton4_0" departPos="5.10" departSpeed="0.00" departDelay="2.00" arrival="150.00" arrivalLane="n4ton3_0" arrivalPos="39.60" arrivalSpeed="17.33" duration="100.00" routeLength="94.90" waitingTime="84.00" waitingCount="1" stopTime="0.00" timeLoss="94.28" rerouteNo="0" devices="tripinfo_48" vType="DEFAULT_VEHTYPE" speedFactor="1.09" vaporized=""/>
    <tripinfo id="114" depart="140.00" departLane="n3ton4_0" departPos="5.10" departSpeed="0.00" departDelay="26.00" arrival="150.00" arrivalLane="n4ton1_0" arrivalPos="39.60" arrivalSpeed="16.00" duration="10.00" routeLength="94.90" waitingTime="0.00" waitingCount="0" stopTime="0.00" timeLoss="4.13" rerouteNo="0" devices="tripinfo_114" vType="DEFAULT_VEHTYPE" speedFactor="1.04" vaporized=""/>
    <tripinfo id="69" depart="69.00" departLane="n1ton4_0" departPos="5.10" departSpeed="0.00" departDelay="0.00" arrival="154.00" arrivalLane="n4ton2_0" arrivalPos="39.60" arrivalSpeed="15.45" duration="85.00" routeLength="83.13" waitingTime="67.00" waitingCount="1" stopTime="0.00" timeLoss="78.03" rerouteNo="0" devices="tripinfo_69" vType="DEFAULT_VEHTYPE" speedFactor="1.00" vaporized=""/>
    <tripinfo id="120" depart="143.00" departLane="n3ton4_0" departPos="5.10" departSpeed="0.00" departDelay="23.00" arrival="155.00" arrivalLane="n4ton0_0" arrivalPos="39.60" arrivalSpeed="14.11" duration="12.00" routeLength="83.13" waitingTime="0.00" waitingCount="0" stopTime="0.00" timeLoss="5.22" rerouteNo="0" devices="tripinfo_120" vType="DEFAULT_VEHTYPE" speedFactor="1.02" vaporized=""/>
    <tripinfo id="126" depart="146.00" departLane="n3ton4_0" departPos="5.10" departSpeed="0.00" departDelay="20.00" arrival="156.00" arrivalLane="n4ton1_0" arrivalPos="39.60" arrivalSpeed="16.74" duration="10.00" routeLength="94.90" waitingTime="0.00" waitingCount="0" stopTime="0.00" timeLoss="4.05" rerouteNo="0" devices="tripinfo_126" vType="DEFAULT_VEHTYPE" speedFactor="1.09" vaporized=""/>
    <tripinfo id="88" depart="148.00" departLane="n1ton4_0" departPos="5.10" departSpeed="0.00" departDelay="60.00" arrival="160.00" arrivalLane="n4ton2_0" arrivalPos="39.60" arrivalSpeed="14.03" duration="12.00" routeLength="83.13" waitingTime="0.00" waitingCount="0" stopTime="0.00" timeLoss="4.72" rerouteNo="0" devices="tripinfo_88" vType="DEFAULT_VEHTYPE" speedFactor="0.91" vaporized=""/>
    <tripinfo id="128" depart="149.00" departLane="n3ton4_0" departPos="5.10" departSpeed="0.00" departDelay="21.00" arrival="161.00" arrivalLane="n4ton0_0" arrivalPos="39.60" arrivalSpeed="14.86" duration="12.00" routeLength="83.13" waitingTime="0.00" waitingCount="0" stopTime="0.00" timeLoss="5.23" rerouteNo="0" devices="tripinfo_128" vType="DEFAULT_VEHTYPE" speedFactor="1.06" vaporized=""/>
    <tripinfo id="133" depart="152.00" departLane="n3ton4_0" departPos="5.10" departSpeed="0.00" departDelay="19.00" arrival="162.00" arrivalLane="n4ton1_0" arrivalPos="39.60" arrivalSpeed="15.74" duration="10.00" routeLength="94.90" waitingTime="0.00" waitingCount="0" stopTime="0.00" timeLoss="3.95" rerouteNo="0" devices="tripinfo_133" vType="DEFAULT_VEHTYPE" speedFactor="1.07" vaporized=""/>
    <tripinfo id="90" depart="151.00" departLane="n1ton4_0" departPos="5.10" departSpeed="0.00" departDelay="61.00" arrival="163.00" arrivalLane="n4ton2_0" arrivalPos="39.60" arrivalSpeed="13.60" duration="12.00" routeLength="83.13" waitingTime="0.00" waitingCount="0" stopTime="0.00" timeLoss="6.26" rerouteNo="0" devices="tripinfo_90" vType="DEFAULT_VEHTYPE" speedFactor="1.04" vaporized=""/>
    <tripinfo id="91" depart="154.00" departLane="n1ton4_0" departPos="5.10" departSpeed="0.00" departDelay="63.00" arrival="164.00" arrivalLane="n4ton3_0" arrivalPos="39.60" arrivalSpeed="15.80" duration="10.00" routeLength="94.90" waitingTime="0.00" waitingCount="0" stopTime="0.00" timeLoss="4.20" rerouteNo="0" devices="tripinfo_91" vType="DEFAULT_VEHTYPE" speedFactor="1.02" vaporized=""/>
    <tripinfo id="153" depart="156.00" departLane="n3ton4_0" departPos="5.10" departSpeed="0.00" departDelay="3.00" arrival="166.00" arrivalLane="n4ton1_0" arrivalPos="39.60" arrivalSpeed="15.84" duration="10.00" routeLength="94.90" waitingTime="0.00" waitingCount="0" stopTime="0.00" timeLoss="3.53" rerouteNo="0" devices="tripinfo_153" vType="DEFAULT_VEHTYPE" speedFactor="1.01" vaporized=""/>
    <tripinfo id="156" depart="159.00" departLane="n3ton4_0" departPos="5.10" departSpeed="0.00" departDelay="3.00" arrival="169.00" arrivalLane="n4ton1_0" arrivalPos="39.60" arrivalSpeed="14.28" duration="10.00" routeLength="94.90" waitingTime="0.00" waitingCount="0" stopTime="0.00" timeLoss="3.22" rerouteNo="0" devices="tripinfo_156" vType="DEFAULT_VEHTYPE" speedFactor="0.92" vaporized=""/>
    <tripinfo id="35" depart="85.00" departLane="n0ton4_0" departPos="5.10" departSpeed="0.00" departDelay="50.00" arrival="186.00" arrivalLane="n4ton3_1" arrivalPos="39.60" arrivalSpeed="15.14" duration="101.00" routeLength="93.45" waitingTime="87.00" waitingCount="1" stopTime="0.00" timeLoss="95.48" rerouteNo="0" devices="tripinfo_35" vType="DEFAULT_VEHTYPE" speedFactor="1.18" vaporized=""/>
    <tripinfo id="30" depart="81.00" departLane="n2ton4_0" departPos="5.10" departSpeed="0.00" departDelay="51.00" arrival="187.00" arrivalLane="n4ton1_1" arrivalPos="39.60" arrivalSpeed="13.23" duration="106.00" routeLength="93.45" waitingTime="91.00" waitingCount="2" stopTime="0.00" timeLoss="97.99" rerouteNo="0" devices="tripinfo_30" vType="DEFAULT_VEHTYPE" speedFactor="0.87" vaporized=""/>
    <tripinfo id="65" depart="96.00" departLane="n2ton4_0" departPos="5.10" departSpeed="0.00" departDelay="31.00" arrival="189.00" arrivalLane="n4ton1_1" arrivalPos="39.60" arrivalSpeed="15.42" duration="93.00" routeLength="93.45" waitingTime="74.00" waitingCount="1" stopTime="0.00" timeLoss="87.42" rerouteNo="0" devices="tripinfo_65" vType="DEFAULT_VEHTYPE" speedFactor="1.17" vaporized=""/>
    <tripinfo id="80" depart="102.00" departLane="n0ton4_0" departPos="5.10" departSpeed="0.00" departDelay="22.00" arrival="189.00" arrivalLane="n4ton3_1" arrivalPos="39.60" arrivalSpeed="14.25" duration="87.00" routeLength="93.45" waitingTime="71.00" waitingCount="3" stopTime="0.00" timeLoss="81.15" rerouteNo="0" devices="tripinfo_80" vType="DEFAULT_VEHTYPE" speedFactor="1.12" vaporized=""/>
    <tripinfo id="33" depart="83.00" departLane="n2ton4_0" departPos="5.10" departSpeed="0.00" departDelay="50.00" arrival="192.00" arrivalLane="n4ton1_1" arrivalPos="39.60" arrivalSpeed="15.37" duration="109.00" routeLength="93.45" waitingTime="90.00" waitingCount="1" stopTime="0.00" timeLoss="102.36" rerouteNo="0" devices="tripinfo_33" vType="DEFAULT_VEHTYPE" speedFactor="1.13" vaporized=""/>
    <tripinfo id="46" depart="86.00" departLane="n0ton4_0" departPos="5.10" departSpeed="0.00" departDelay="40.00" arrival="192.00" arrivalLane="n4ton3_1" arrivalPos="39.60" arrivalSpeed="16.48" duration="106.00" routeLength="93.45" waitingTime="88.00" waitingCount="1" stopTime="0.00" timeLoss="98.93" rerouteNo="0" devices="tripinfo_46" vType="DEFAULT_VEHTYPE" speedFactor="1.03" vaporized=""/>
    <tripinfo id="49" depart="89.00" departLane="n0ton4_0" departPos="5.10" departSpeed="0.00" departDelay="40.00" arrival="194.00" arrivalLane="n4ton3_1" arrivalPos="39.60" arrivalSpeed="13.77" duration="105.00" routeLength="93.45" waitingTime="87.00" waitingCount="1" stopTime="0.00" timeLoss="98.41" rerouteNo="0" devices="tripinfo_49" vType="DEFAULT_VEHTYPE" speedFactor="1.04" vaporized=""/>
    <tripinfo id="76" depart="100.00" departLane="n2ton4_0" departPos="5.10" departSpeed="0.00" departDelay="24.00" arrival="195.00" arrivalLane="n4ton1_1" arrivalPos="39.60" arrivalSpeed="15.30" duration="95.00" routeLength="93.45" waitingTime="71.00" waitingCount="1" stopTime="0.00" timeLoss="88.09" rerouteNo="0" devices="tripinfo_76" vType="DEFAULT_VEHTYPE" speedFactor="1.02" vaporized=""/>
    <tripinfo id="66" depart="97.00" departLane="n0ton4_0" departPos="5.10" departSpeed="0.00" departDelay="31.00" arrival="196.00" arrivalLane="n4ton3_1" arrivalPos="39.60" arrivalSpeed="14.11" duration="99.00" routeLength="93.45" waitingTime="83.00" waitingCount="1" stopTime="0.00" timeLoss="92.37" rerouteNo="0" devices="tripinfo_66" vType="DEFAULT_VEHTYPE" speedFactor="1.02" vaporized=""/>