<?xml version="1.0" encoding="UTF-8"?>

<!-- generated on Tue Apr 28 23:35:04 2020 by Eclipse SUMO GUI Version 1.5.0
<configuration xmlns:xsi="http://www.w3.org/2001/XMLSchema-instance" xsi:noNamespaceSchemaLocation="http://sumo.dlr.de/xsd/sumoConfiguration.xsd">

    <input>
        <net-file value="my_net.net.xml"/>
        <route-files value="my_route.rou.xml"/>
        <additional-files value="demo.add.xml"/>
    </input>

    <output>
        <tripinfo-output value="tripinfo.xml"/>
    </output>

    <time>
        <begin value="0"/>
        <end value="2000"/>
    </time>

    <traci_server>
        <remote-port value="59637"/>
    </traci_server>

</configuration>
-->

<tripinfos xmlns:xsi="http://www.w3.org/2001/XMLSchema-instance" xsi:noNamespaceSchemaLocation="http://sumo.dlr.de/xsd/tripinfo_file.xsd">
    <tripinfo id="3" depart="4.00" departLane="n1ton4_0" departPos="5.10" departSpeed="0.00" departDelay="1.00" arrival="16.00" arrivalLane="n4ton0_1" arrivalPos="39.60" arrivalSpeed="14.81" duration="12.00" routeLength="93.45" waitingTime="0.00" waitingCount="0" stopTime="0.00" timeLoss="4.58" rerouteNo="0" devices="tripinfo_3" vType="DEFAULT_VEHTYPE" speedFactor="1.01" vaporized=""/>
    <tripinfo id="6" depart="7.00" departLane="n3ton4_0" departPos="5.10" departSpeed="0.00" departDelay="1.00" arrival="20.00" arrivalLane="n4ton2_1" arrivalPos="39.60" arrivalSpeed="12.59" duration="13.00" routeLength="93.45" waitingTime="0.00" waitingCount="0" stopTime="0.00" timeLoss="4.54" rerouteNo="0" devices="tripinfo_6" vType="DEFAULT_VEHTYPE" speedFactor="0.83" vaporized=""/>
    <tripinfo id="8" depart="8.00" departLane="n1ton4_0" departPos="5.10" departSpeed="0.00" departDelay="0.00" arrival="21.00" arrivalLane="n4ton0_1" arrivalPos="39.60" arrivalSpeed="12.92" duration="13.00" routeLength="93.45" waitingTime="0.00" waitingCount="0" stopTime="0.00" timeLoss="4.44" rerouteNo="0" devices="tripinfo_8" vType="DEFAULT_VEHTYPE" speedFactor="0.89" vaporized=""/>
    <tripinfo id="9" depart="9.00" departLane="n1ton4_0" departPos="5.10" departSpeed="0.00" departDelay="0.00" arrival="22.00" arrivalLane="n4ton0_1" arrivalPos="39.60" arrivalSpeed="14.26" duration="13.00" routeLength="93.45" waitingTime="0.00" waitingCount="0" stopTime="0.00" timeLoss="5.48" rerouteNo="0" devices="tripinfo_9" vType="DEFAULT_VEHTYPE" speedFactor="0.94" vaporized=""/>
    <tripinfo id="12" depart="15.00" departLane="n1ton4_0" departPos="5.10" departSpeed="0.00" departDelay="3.00" arrival="26.00" arrivalLane="n4ton0_1" arrivalPos="39.60" arrivalSpeed="13.74" duration="11.00" routeLength="93.45" waitingTime="0.00" waitingCount="0" stopTime="0.00" timeLoss="4.66" rerouteNo="0" devices="tripinfo_12" vType="DEFAULT_VEHTYPE" speedFactor="1.09" vaporized=""/>
    <tripinfo id="21" depart="23.00" departLane="n3ton4_0" departPos="5.10" departSpeed="0.00" departDelay="2.00" arrival="35.00" arrivalLane="n4ton2_1" arrivalPos="39.60" arrivalSpeed="14.04" duration="12.00" routeLength="93.45" waitingTime="0.00" waitingCount="0" stopTime="0.00" timeLoss="4.14" rerouteNo="0" devices="tripinfo_21" vType="DEFAULT_VEHTYPE" speedFactor="0.94" vaporized=""/>
    <tripinfo id="23" depart="24.00" departLane="n3ton4_0" departPos="5.10" departSpeed="0.00" departDelay="1.00" arrival="37.00" arrivalLane="n4ton2_1" arrivalPos="39.60" arrivalSpeed="15.99" duration="13.00" routeLength="93.45" waitingTime="0.00" waitingCount="0" stopTime="0.00" timeLoss="6.59" rerouteNo="0" devices="tripinfo_23" vType="DEFAULT_VEHTYPE" speedFactor="1.16" vaporized=""/>
    <tripinfo id="1" depart="1.00" departLane="n1ton4_0" departPos="5.10" departSpeed="0.00" departDelay="0.00" arrival="49.00" arrivalLane="n4ton2_0" arrivalPos="39.60" arrivalSpeed="13.91" duration="48.00" routeLength="83.13" waitingTime="33.00" waitingCount="1" stopTime="0.00" timeLoss="42.23" rerouteNo="0" devices="tripinfo_1" vType="DEFAULT_VEHTYPE" speedFactor="1.06" vaporized=""/>
    <tripinfo id="4" depart="4.00" departLane="n3ton4_0" departPos="5.10" departSpeed="0.00" departDelay="0.00" arrival="49.00" arrivalLane="n4ton0_0" arrivalPos="39.60" arrivalSpeed="14.55" duration="45.00" routeLength="83.13" waitingTime="31.00" waitingCount="1" stopTime="0.00" timeLoss="39.49" rerouteNo="0" devices="tripinfo_4" vType="DEFAULT_VEHTYPE" speedFactor="1.08" vaporized=""/>
    <tripinfo id="5" depart="5.00" departLane="n1ton4_0" departPos="5.10" departSpeed="0.00" departDelay="0.00" arrival="52.00" arrivalLane="n4ton2_0" arrivalPos="39.60" arrivalSpeed="13.73" duration="47.00" routeLength="83.13" waitingTime="30.00" waitingCount="1" stopTime="0.00" timeLoss="40.46" rerouteNo="0" devices="tripinfo_5" vType="DEFAULT_VEHTYPE" speedFactor="1.03" vaporized=""/>
    <tripinfo id="20" depart="20.00" departLane="n3ton4_0" departPos="5.10" departSpeed="0.00" departDelay="0.00" arrival="52.00" arrivalLane="n4ton0_0" arrivalPos="39.60" arrivalSpeed="13.98" duration="32.00" routeLength="83.13" waitingTime="15.00" waitingCount="1" stopTime="0.00" timeLoss="24.56" rerouteNo="0" devices="tripinfo_20" vType="DEFAULT_VEHTYPE" speedFactor="0.88" vaporized=""/>
    <tripinfo id="25" depart="27.00" departLane="n3ton4_0" departPos="5.10" departSpeed="0.00" departDelay="2.00" arrival="55.00" arrivalLane="n4ton0_0" arrivalPos="39.60" arrivalSpeed="15.45" duration="28.00" routeLength="83.13" waitingTime="11.00" waitingCount="1" stopTime="0.00" timeLoss="20.95" rerouteNo="0" devices="tripinfo_25" vType="DEFAULT_VEHTYPE" speedFactor="1.01" vaporized=""/>
    <tripinfo id="10" depart="12.00" departLane="n1ton4_0" departPos="5.10" departSpeed="0.00" departDelay="2.00" arrival="56.00" arrivalLane="n4ton2_0" arrivalPos="39.60" arrivalSpeed="13.17" duration="44.00" routeLength="83.13" waitingTime="25.00" waitingCount="1" stopTime="0.00" timeLoss="35.86" rerouteNo="0" devices="tripinfo_10" vType="DEFAULT_VEHTYPE" speedFactor="0.86" vaporized=""/>
    <tripinfo id="24" depart="24.00" departLane="n1ton4_0" departPos="5.10" departSpeed="0.00" departDelay="0.00" arrival="58.00" arrivalLane="n4ton2_0" arrivalPos="39.60" arrivalSpeed="13.21" duration="34.00" routeLength="83.13" waitingTime="16.00" waitingCount="1" stopTime="0.00" timeLoss="27.40" rerouteNo="0" devices="tripinfo_24" vType="DEFAULT_VEHTYPE" speedFactor="1.02" vaporized=""/>
    <tripinfo id="28" depart="30.00" departLane="n3ton4_0" departPos="5.10" departSpeed="0.00" departDelay="2.00" arrival="58.00" arrivalLane="n4ton0_0" arrivalPos="39.60" arrivalSpeed="12.90" duration="28.00" routeLength="83.13" waitingTime="10.00" waitingCount="1" stopTime="0.00" timeLoss="20.93" rerouteNo="0" devices="tripinfo_28" vType="DEFAULT_VEHTYPE" speedFactor="0.89" vaporized=""/>
    <tripinfo id="29" depart="33.00" departLane="n3ton4_0" departPos="5.10" departSpeed="0.00" departDelay="4.00" arrival="60.00" arrivalLane="n4ton0_0" arrivalPos="39.60" arrivalSpeed="12.59" duration="27.00" routeLength="83.13" waitingTime="10.00" waitingCount="1" stopTime="0.00" timeLoss="20.01" rerouteNo="0" devices="tripinfo_29" vType="DEFAULT_VEHTYPE" speedFactor="0.83" vaporized=""/>
    <tripinfo id="41" depart="49.00" departLane="n1ton4_0" departPos="5.10" departSpeed="0.00" departDelay="8.00" arrival="62.00" arrivalLane="n4ton2_0" arrivalPos="39.60" arrivalSpeed="14.12" duration="13.00" routeLength="83.13" waitingTime="1.00" waitingCount="1" stopTime="0.00" timeLoss="6.87" rerouteNo="0" devices="tripinfo_41" vType="DEFAULT_VEHTYPE" speedFactor="0.97" vaporized=""/>
    <tripinfo id="45" depart="51.00" departLane="n3ton4_0" departPos="5.10" departSpeed="0.00" departDelay="6.00" arrival="63.00" arrivalLane="n4ton0_0" arrivalPos="39.60" arrivalSpeed="12.87" duration="12.00" routeLength="83.13" waitingTime="0.00" waitingCount="0" stopTime="0.00" timeLoss="5.58" rerouteNo="0" devices="tripinfo_45" vType="DEFAULT_VEHTYPE" speedFactor="0.90" vaporized=""/>
    <tripinfo id="42" depart="53.00" departLane="n1ton4_0" departPos="5.10" departSpeed="0.00" departDelay="11.00" arrival="64.00" arrivalLane="n4ton2_0" arrivalPos="39.60" arrivalSpeed="13.81" duration="11.00" routeLength="83.13" waitingTime="0.00" waitingCount="0" stopTime="0.00" timeLoss="6.01" rerouteNo="0" devices="tripinfo_42" vType="DEFAULT_VEHTYPE" speedFactor="1.18" vaporized=""/>
    <tripinfo id="47" depart="54.00" departLane="n3ton4_0" departPos="5.10" departSpeed="0.00" departDelay="7.00" arrival="65.00" arrivalLane="n4ton1_0" arrivalPos="39.60" arrivalSpeed="14.17" duration="11.00" routeLength="94.90" waitingTime="0.00" waitingCount="0" stopTime="0.00" timeLoss="4.63" rerouteNo="0" devices="tripinfo_47" vType="DEFAULT_VEHTYPE" speedFactor="0.96" vaporized=""/>
    <tripinfo id="51" depart="57.00" departLane="n3ton4_0" departPos="5.10" departSpeed="0.00" departDelay="6.00" arrival="67.00" arrivalLane="n4ton1_0" arrivalPos="39.60" arrivalSpeed="16.22" duration="10.00" routeLength="94.90" waitingTime="0.00" waitingCount="0" stopTime="0.00" timeLoss="3.80" rerouteNo="0" devices="tripinfo_51" vType="DEFAULT_VEHTYPE" speedFactor="1.04" vaporized=""/>
    <tripinfo id="59" depart="60.00" departLane="n3ton4_0" departPos="5.10" departSpeed="0.00" departDelay="1.00" arrival="72.00" arrivalLane="n4ton0_0" arrivalPos="39.60" arrivalSpeed="12.96" duration="12.00" routeLength="83.13" waitingTime="0.00" waitingCount="0" stopTime="0.00" timeLoss="4.91" rerouteNo="0" devices="tripinfo_59" vType="DEFAULT_VEHTYPE" speedFactor="0.90" vaporized=""/>
    <tripinfo id="62" depart="63.00" departLane="n3ton4_0" departPos="5.10" departSpeed="0.00" departDelay="1.00" arrival="76.00" arrivalLane="n4ton0_0" arrivalPos="39.60" arrivalSpeed="13.19" duration="13.00" routeLength="83.13" waitingTime="0.00" waitingCount="0" stopTime="0.00" timeLoss="5.49" rerouteNo="0" devices="tripinfo_62" vType="DEFAULT_VEHTYPE" speedFactor="0.85" vaporized=""/>
    <tripinfo id="69" depart="69.00" departLane="n1ton4_0" departPos="5.10" departSpeed="0.00" departDelay="0.00" arrival="81.00" arrivalLane="n4ton2_0" arrivalPos="39.60" arrivalSpeed="12.39" duration="12.00" routeLength="83.13" waitingTime="0.00" waitingCount="0" stopTime="0.00" timeLoss="5.41" rerouteNo="0" devices="tripinfo_69" vType="DEFAULT_VEHTYPE" speedFactor="1.00" vaporized=""/>
    <tripinfo id="22" depart="22.00" departLane="n2ton4_0" departPos="5.10" departSpeed="0.00" departDelay="0.00" arrival="92.00" arrivalLane="n4ton1_1" arrivalPos="39.60" arrivalSpeed="13.92" duration="70.00" routeLength="93.45" waitingTime="55.00" waitingCount="1" stopTime="0.00" timeLoss="62.95" rerouteNo="0" devices="tripinfo_22" vType="DEFAULT_VEHTYPE" speedFactor="0.94" vaporized=""/>
    <tripinfo id="37" depart="37.00" departLane="n1ton4_0" departPos="5.10" departSpeed="0.00" departDelay="0.00" arrival="132.00" arrivalLane="n4ton3_0" arrivalPos="39.60" arrivalSpeed="0.30" duration="95.00" routeLength="94.90" waitingTime="5.00" waitingCount="1" stopTime="0.00" timeLoss="89.09" rerouteNo="0" devices="tripinfo_37" vType="DEFAULT_VEHTYPE" speedFactor="1.01" vaporized=""/>
    <tripinfo id="2" depart="2.00" departLane="n0ton4_0" departPos="5.10" departSpeed="0.00" departDelay="0.00" arrival="134.00" arrivalLane="n4ton1_0" arrivalPos="39.60" arrivalSpeed="12.80" duration="132.00" routeLength="83.13" waitingTime="116.00" waitingCount="1" stopTime="0.00" timeLoss="125.72" rerouteNo="0" devices="tripinfo_2" vType="DEFAULT_VEHTYPE" speedFactor="0.94" vaporized=""/>
    <tripinfo id="16" depart="16.00" departLane="n0ton4_0" departPos="5.10" departSpeed="0.00" departDelay="0.00" arrival="136.00" arrivalLane="n4ton1_0" arrivalPos="39.60" arrivalSpeed="13.65" duration="120.00" routeLength="83.13" waitingTime="105.00" waitingCount="1" stopTime="0.00" timeLoss="114.35" rerouteNo="0" devices="tripinfo_16" vType="DEFAULT_VEHTYPE" speedFactor="1.12" vaporized=""/>
    <tripinfo id="13" depart="13.00" departLane="n2ton4_0" departPos="5.10" departSpeed="0.00" departDelay="0.00" arrival="137.00" arrivalLane="n4ton0_0" arrivalPos="39.60" arrivalSpeed="15.22" duration="124.00" routeLength="94.90" waitingTime="106.00" waitingCount="1" stopTime="0.00" timeLoss="117.71" rerouteNo="0" devices="tripinfo_13" vType="DEFAULT_VEHTYPE" speedFactor="1.03" vaporized=""/>
    <tripinfo id="19" depart="19.00" departLane="n0ton4_0" departPos="5.10" departSpeed="0.00" departDelay="0.00" arrival="139.00" arrivalLane="n4ton2_0" arrivalPos="39.60" arrivalSpeed="14.77" duration="120.00" routeLength="94.90" waitingTime="104.00" waitingCount="1" stopTime="0.00" timeLoss="112.65" rerouteNo="0" devices="tripinfo_19" vType="DEFAULT_VEHTYPE" speedFactor="0.93" vaporized=""/>
    <tripinfo id="31" depart="31.00" departLane="n0ton4_0" departPos="5.10" departSpeed="0.00" departDelay="0.00" arrival="141.00" arrivalLane="n4ton1_0" arrivalPos="39.60" arrivalSpeed="14.13" duration="110.00" routeLength="83.13" waitingTime="94.00" waitingCount="1" stopTime="0.00" timeLoss="103.60" rerouteNo="0" devices="tripinfo_31" vType="DEFAULT_VEHTYPE" speedFactor="0.92" vaporized=""/>
    <tripinfo id="32" depart="34.00" departLane="n0ton4_0" departPos="5.10" departSpeed="0.00" departDelay="2.00" arrival="144.00" arrivalLane="n4ton1_0" arrivalPos="39.60" arrivalSpeed="12.96" duration="110.00" routeLength="83.13" waitingTime="94.00" waitingCount="1" stopTime="0.00" timeLoss="103.83" rerouteNo="0" devices="tripinfo_32" vType="DEFAULT_VEHTYPE" speedFactor="0.95" vaporized=""/>
    <tripinfo id="34" depart="134.00" departLane="n0ton4_0" departPos="5.10" departSpeed="0.00" departDelay="100.00" arrival="147.00" arrivalLane="n4ton1_0" arrivalPos="39.60" arrivalSpeed="12.50" duration="13.00" routeLength="83.13" waitingTime="0.00" waitingCount="0" stopTime="0.00" timeLoss="6.15" rerouteNo="0" devices="tripinfo_34" vType="DEFAULT_VEHTYPE" speedFactor="0.93" vaporized=""/>
    <tripinfo id="53" depart="142.00" departLane="n0ton4_0" departPos="5.10" departSpeed="0.00" departDelay="89.00" arrival="152.00" arrivalLane="n4ton2_0" arrivalPos="39.60" arrivalSpeed="16.89" duration="10.00" routeLength="94.90" waitingTime="0.00" waitingCount="0" stopTime="0.00" timeLoss="3.76" rerouteNo="0" devices="tripinfo_53" vType="DEFAULT_VEHTYPE" speedFactor="1.09" vaporized=""/>
    <tripinfo id="63" depart="145.00" departLane="n0ton4_0" departPos="5.10" departSpeed="0.00" departDelay="82.00" arrival="155.00" arrivalLane="n4ton2_0" arrivalPos="39.60" arrivalSpeed="13.53" duration="10.00" routeLength="94.90" waitingTime="0.00" waitingCount="0" stopTime="0.00" timeLoss="2.85" rerouteNo="0" devices="tripinfo_63" vType="DEFAULT_VEHTYPE" speedFactor="0.85" vaporized=""/>
    <tripinfo id="26" depart="26.00" departLane="n2ton4_0" departPos="5.10" departSpeed="0.00" departDelay="0.00" arrival="158.00" arrivalLane="n4ton0_0" arrivalPos="39.60" arrivalSpeed="14.45" duration="132.00" routeLength="94.90" waitingTime="107.00" waitingCount="2" stopTime="0.00" timeLoss="125.71" rerouteNo="0" devices="tripinfo_26" vType="DEFAULT_VEHTYPE" speedFactor="0.98" vaporized=""/>
    <tripinfo id="72" depart="149.00" departLane="n0ton4_0" departPos="5.10" departSpeed="0.00" departDelay="77.00" arrival="159.00" arrivalLane="n4ton2_0" arrivalPos="39.60" arrivalSpeed="15.62" duration="10.00" routeLength="94.90" waitingTime="0.00" waitingCount="0" stopTime="0.00" timeLoss="3.08" rerouteNo="0" devices="tripinfo_72" vType="DEFAULT_VEHTYPE" speedFactor="1.00" vaporized=""/>
    <tripinfo id="38" depart="138.00" departLane="n2ton4_0" departPos="5.10" departSpeed="0.00" departDelay="100.00" arrival="160.00" arrivalLane="n4ton0_0" arrivalPos="39.60" arrivalSpeed="14.84" duration="22.00" routeLength="94.90" waitingTime="1.00" waitingCount="1" stopTime="0.00" timeLoss="16.83" rerouteNo="0" devices="tripinfo_38" vType="DEFAULT_VEHTYPE" speedFactor="1.17" vaporized=""/>
    <tripinfo id="40" depart="142.00" departLane="n2ton4_0" departPos="5.10" departSpeed="0.00" departDelay="102.00" arrival="163.00" arrivalLane="n4ton0_0" arrivalPos="39.60" arrivalSpeed="15.28" duration="21.00" routeLength="94.90" waitingTime="0.00" waitingCount="0" stopTime="0.00" timeLoss="14.41" rerouteNo="0" devices="tripinfo_40" vType="DEFAULT_VEHTYPE" speedFactor="1.02" vaporized=""/>
    <tripinfo id="44" depart="56.00" departLane="n1ton4_0" departPos="5.10" departSpeed="0.00" departDelay="12.00" arrival="167.00" arrivalLane="n4ton3_1" arrivalPos="39.60" arrivalSpeed="0.30" duration="111.00" routeLength="94.90" waitingTime="0.00" waitingCount="0" stopTime="0.00" timeLoss="105.62" rerouteNo="0" devices="tripinfo_44" vType="DEFAULT_VEHTYPE" speedFactor="1.10" vaporized=""/>
    <tripinfo id="48" depart="59.00" departLane="n1ton4_0" departPos="5.10" departSpeed="0.00" departDelay="11.00" arrival="172.00" arrivalLane="n4ton3_0" arrivalPos="39.60" arrivalSpeed="0.30" duration="113.00" routeLength="94.90" waitingTime="0.00" waitingCount="0" stopTime="0.00" timeLoss="107.56" rerouteNo="0" devices="tripinfo_48" vType="DEFAULT_VEHTYPE" speedFactor="1.09" vaporized=""/>
    <tripinfo id="36" depart="49.00" departLane="n3ton4_0" departPos="5.10" departSpeed="0.00" departDelay="13.00" arrival="176.00" arrivalLane="n4ton2_1" arrivalPos="39.60" arrivalSpeed="15.76" duration="127.00" routeLength="93.45" waitingTime="110.00" waitingCount="1" stopTime="0.00" timeLoss="121.22" rerouteNo="0" devices="tripinfo_36" vType="DEFAULT_VEHTYPE" speedFactor="1.15" vaporized=""/>
    <tripinfo id="68" depart="68.00" departLane="n3ton4_0" departPos="5.10" departSpeed="0.00" departDelay="0.00" arrival="178.00" arrivalLane="n4ton2_1" arrivalPos="39.60" arrivalSpeed="16.27" duration="110.00" routeLength="93.45" waitingTime="96.00" waitingCount="1" stopTime="0.00" timeLoss="103.84" rerouteNo="0" devices="tripinfo_68" vType="DEFAULT_VEHTYPE" speedFactor="1.10" vaporized=""/>
    <tripinfo id="73" depart="73.00" departLane="n1ton4_0" departPos="5.10" departSpeed="0.00" departDelay="0.00" arrival="178.00" arrivalLane="n4ton0_1" arrivalPos="39.60" arrivalSpeed="13.54" duration="105.00" routeLength="93.45" waitingTime="89.00" waitingCount="1" stopTime="0.00" timeLoss="96.89" rerouteNo="0" devices="tripinfo_73" vType="DEFAULT_VEHTYPE" speedFactor="0.90" vaporized=""/>
    <tripinfo id="86" depart="86.00" departLane="n1ton4_0" departPos="5.10" departSpeed="0.00" departDelay="0.00" arrival="180.00" arrivalLane="n4ton0_1" arrivalPos="39.60" arrivalSpeed="13.57" duration="94.00" routeLength="93.45" waitingTime="77.00" waitingCount="1" stopTime="0.00" timeLoss="86.14" rerouteNo="0" devices="tripinfo_86" vType="DEFAULT_VEHTYPE" speedFactor="0.88" vaporized=""/>
    <tripinfo id="94" depart="95.00" departLane="n3ton4_0" departPos="5.10" departSpeed="0.00" departDelay="1.00" arrival="181.00" arrivalLane="n4ton2_1" arrivalPos="39.60" arrivalSpeed="13.16" duration="86.00" routeLength="93.45" waitingTime="69.00" waitingCount="1" stopTime="0.00" timeLoss="78.45" rerouteNo="0" devices="tripinfo_94" vType="DEFAULT_VEHTYPE" speedFactor="0.94" vaporized=""/>
    <tripinfo id="108" depart="108.00" departLane="n1ton4_0" departPos="5.10" departSpeed="0.00" departDelay="0.00" arrival="182.00" arrivalLane="n4ton0_1" arrivalPos="39.60" arrivalSpeed="14.12" duration="74.00" routeLength="93.45" waitingTime="56.00" waitingCount="1" stopTime="0.00" timeLoss="66.64" rerouteNo="0" devices="tripinfo_108" vType="DEFAULT_VEHTYPE" speedFactor="0.97" vaporized=""/>
    <tripinfo id="110" depart="110.00" departLane="n1ton4_0" departPos="5.10" departSpeed="0.00" departDelay="0.00" arrival="184.00" arrivalLane="n4ton0_1" arrivalPos="39.60" arrivalSpeed="14.71" duration="74.00" routeLength="93.45" waitingTime="57.00" waitingCount="1" stopTime="0.00" timeLoss="66.58" rerouteNo="0" devices="tripinfo_110" vType="DEFAULT_VEHTYPE" speedFactor="0.98" vaporized=""/>
    <tripinfo id="117" depart="117.00" departLane="n1ton4_0" departPos="5.10" departSpeed="0.00" departDelay="0.00" arrival="186.00" arrivalLane="n4ton0_1" arrivalPos="39.60" arrivalSpeed="14.30" duration="69.00" routeLength="93.45" waitingTime="55.00" waitingCount="1" stopTime="0.00" timeLoss="62.44" rerouteNo="0" devices="tripinfo_117" vType="DEFAULT_VEHTYPE" speedFactor="1.02" vaporized=""/>
    <tripinfo id="124" depart="124.00" departLane="n1ton4_0" departPos="5.10" departSpeed="0.00" departDelay="0.00" arrival="189.00" arrivalLane="n4ton0_1" arrivalPos="39.60" arrivalSpeed="13.70" duration="65.00" routeLength="93.45" waitingTime="50.00" waitingCount="1" stopTime="0.00" timeLoss="57.16" rerouteNo="0" devices="tripinfo_124" vType="DEFAULT_VEHTYPE" speedFactor="0.92" vaporized=""/>
    <tripinfo id="145" depart="145.00" departLane="n1ton4_0" departPos="5.10" departSpeed="0.00" departDelay="0.00" arrival="191.00" arrivalLane="n4ton0_1" arrivalPos="39.60" arrivalSpeed="13.95" duration="46.00" routeLength="93.45" waitingTime="32.00" waitingCount="1" stopTime="0.00" timeLoss="39.19" rerouteNo="0" devices="tripinfo_145" vType="DEFAULT_VEHTYPE" speedFactor="1.07" vaporized=""/>
    <tripinfo id="7" depart="7.00" departLane="n2ton4_0" departPos="5.10" departSpeed="0.00" departDelay="0.00" arrival="214.00" arrivalLane="n4ton3_1" arrivalPos="39.60" arrivalSpeed="0.30" duration="207.00" routeLength="83.13" waitingTime="113.00" waitingCount="1" stopTime="0.00" timeLoss="201.51" rerouteNo="0" devices="tripinfo_7" vType="DEFAULT_VEHTYPE" speedFactor="1.05" vaporized=""/>
    <tripinfo id="17" depart="19.00" departLane="n2ton4_0" departPos="5.10" departSpeed="0.00" departDelay="2.00" arrival="217.00" arrivalLane="n4ton3_1" arrivalPos="39.60" arrivalSpeed="5.63" duration="198.00" routeLength="83.13" waitingTime="106.00" waitingCount="1" stopTime="0.00" timeLoss="191.50" rerouteNo="0" devices="tripinfo_17" vType="DEFAULT_VEHTYPE" speedFactor="0.99" vaporized=""/>
    <tripinfo id="79" depart="79.00" departLane="n3ton4_0" departPos="5.10" departSpeed="0.00" departDelay="0.00" arrival="219.00" arrivalLane="n4ton0_0" arrivalPos="39.60" arrivalSpeed="13.29" duration="140.00" routeLength="83.13" waitingTime="127.00" waitingCount="1" stopTime="0.00" timeLoss="134.25" rerouteNo="0" devices="tripinfo_79" vType="DEFAULT_VEHTYPE" speedFactor="1.08" vaporized=""/>
    <tripinfo id="88" depart="88.00" departLane="n1ton4_0" departPos="5.10" departSpeed="0.00" departDelay="0.00" arrival="219.00" arrivalLane="n4ton2_0" arrivalPos="39.60" arrivalSpeed="14.17" duration="131.00" routeLength="83.13" waitingTime="117.00" waitingCount="1" stopTime="0.00" timeLoss="124.36" rerouteNo="0" devices="tripinfo_88" vType="DEFAULT_VEHTYPE" speedFactor="0.91" vaporized=""/>
    <tripinfo id="56" depart="145.00" departLane="n2ton4_0" departPos="5.10" departSpeed="0.00" departDelay="89.00" arrival="220.00" arrivalLane="n4ton3_1" arrivalPos="39.60" arrivalSpeed="8.10" duration="75.00" routeLength="83.13" waitingTime="0.00" waitingCount="0" stopTime="0.00" timeLoss="68.80" rerouteNo="0" devices="tripinfo_56" vType="DEFAULT_VEHTYPE" speedFactor="1.00" vaporized=""/>
    <tripinfo id="81" depart="82.00" departLane="n3ton4_0" departPos="5.10" departSpeed="0.00" departDelay="1.00" arrival="221.00" arrivalLane="n4ton1_0" arrivalPos="39.60" arrivalSpeed="16.08" duration="139.00" routeLength="94.90" waitingTime="125.00" waitingCount="1" stopTime="0.00" timeLoss="133.08" rerouteNo="0" devices="tripinfo_81" vType="DEFAULT_VEHTYPE" speedFactor="1.02" vaporized=""/>
    <tripinfo id="90" depart="91.00" departLane="n1ton4_0" departPos="5.10" departSpeed="0.00" departDelay="1.00" arrival="222.00" arrivalLane="n4ton2_0" arrivalPos="39.60" arrivalSpeed="14.13" duration="131.00" routeLength="83.13" waitingTime="115.00" waitingCount="1" stopTime="0.00" timeLoss="124.44" rerouteNo="0" devices="tripinfo_90" vType="DEFAULT_VEHTYPE" speedFactor="1.04" vaporized=""/>
    <tripinfo id="92" depart="92.00" departLane="n3ton4_0" departPos="5.10" departSpeed="0.00" departDelay="0.00" arrival="223.00" arrivalLane="n4ton1_0" arrivalPos="39.60" arrivalSpeed="15.09" duration="131.00" routeLength="94.90" waitingTime="117.00" waitingCount="1" stopTime="0.00" timeLoss="125.17" rerouteNo="0" devices="tripinfo_92" vType="DEFAULT_VEHTYPE" speedFactor="1.02" vaporized=""/>
    <tripinfo id="101" depart="101.00" departLane="n3ton4_0" departPos="5.10" departSpeed="0.00" departDelay="0.00" arrival="226.00" arrivalLane="n4ton0_0" arrivalPos="39.60" arrivalSpeed="14.60" duration="125.00" routeLength="83.13" waitingTime="109.00" waitingCount="1" stopTime="0.00" timeLoss="118.95" rerouteNo="0" devices="tripinfo_101" vType="DEFAULT_VEHTYPE" speedFactor="1.03" vaporized=""/>
    <tripinfo id="102" depart="104.00" departLane="n3ton4_0" departPos="5.10" departSpeed="0.00" departDelay="2.00" arrival="229.00" arrivalLane="n4ton1_0" arrivalPos="39.60" arrivalSpeed="14.89" duration="125.00" routeLength="94.90" waitingTime="108.00" waitingCount="1" stopTime="0.00" timeLoss="118.44" rerouteNo="0" devices="tripinfo_102" vType="DEFAULT_VEHTYPE" speedFactor="0.98" vaporized=""/>
    <tripinfo id="103" depart="219.00" departLane="n3ton4_0" departPos="5.10" departSpeed="0.00" departDelay="116.00" arrival="231.00" arrivalLane="n4ton0_0" arrivalPos="39.60" arrivalSpeed="14.68" duration="12.00" routeLength="83.13" waitingTime="0.00" waitingCount="0" stopTime="0.00" timeLoss="5.73" rerouteNo="0" devices="tripinfo_103" vType="DEFAULT_VEHTYPE" speedFactor="1.01" vaporized=""/>
    <tripinfo id="160" depart="220.00" departLane="n1ton4_0" departPos="5.10" departSpeed="0.00" departDelay="60.00" arrival="231.00" arrivalLane="n4ton2_0" arrivalPos="39.60" arrivalSpeed="13.66" duration="11.00" routeLength="83.13" waitingTime="0.00" waitingCount="0" stopTime="0.00" timeLoss="4.95" rerouteNo="0" devices="tripinfo_160" vType="DEFAULT_VEHTYPE" speedFactor="0.99" vaporized=""/>
    <tripinfo id="107" depart="222.00" departLane="n3ton4_0" departPos="5.10" departSpeed="0.00" departDelay="115.00" arrival="232.00" arrivalLane="n4ton1_0" arrivalPos="39.60" arrivalSpeed="15.52" duration="10.00" routeLength="94.90" waitingTime="0.00" waitingCount="0" stopTime="0.00" timeLoss="3.93" rerouteNo="0" devices="tripinfo_107" vType="DEFAULT_VEHTYPE" speedFactor="1.02" vaporized=""/>
    <tripinfo id="114" depart="225.00" departLane="n3ton4_0" departPos="5.10" departSpeed="0.00" departDelay="111.00" arrival="235.00" arrivalLane="n4ton1_0" arrivalPos="39.60" arrivalSpeed="15.68" duration="10.00" routeLength="94.90" waitingTime="0.00" waitingCount="0" stopTime="0.00" timeLoss="3.75" rerouteNo="0" devices="tripinfo_114" vType="DEFAULT_VEHTYPE" speedFactor="1.04" vaporized=""/>
    <tripinfo id="162" depart="226.00" departLane="n1ton4_0" departPos="5.10" departSpeed="0.00" departDelay="64.00" arrival="237.00" arrivalLane="n4ton2_0" arrivalPos="39.60" arrivalSpeed="14.40" duration="11.00" routeLength="83.13" waitingTime="0.00" waitingCount="0" stopTime="0.00" timeLoss="4.63" rerouteNo="0" devices="tripinfo_162" vType="DEFAULT_VEHTYPE" speedFactor="0.94" vaporized=""/>
    <tripinfo id="120" depart="228.00" departLane="n3ton4_0" departPos="5.10" departSpeed="0.00" departDelay="108.00" arrival="240.00" arrivalLane="n4ton0_0" arrivalPos="39.60" arrivalSpeed="14.11" duration="12.00" routeLength="83.13" waitingTime="0.00" waitingCount="0" stopTime="0.00" timeLoss="5.41" rerouteNo="0" devices="tripinfo_120" vType="DEFAULT_VEHTYPE" speedFactor="1.02" vaporized=""/>
    <tripinfo id="126" depart="231.00" departLane="n3ton4_0" departPos="5.10" departSpeed="0.00" departDelay="105.00" arrival="241.00" arrivalLane="n4ton1_0" arrivalPos="39.60" arrivalSpeed="16.21" duration="10.00" routeLength="94.90" waitingTime="0.00" waitingCount="0" stopTime="0.00" timeLoss="4.25" rerouteNo="0" devices="tripinfo_126" vType="DEFAULT_VEHTYPE" speedFactor="1.09" vaporized=""/>
    <tripinfo id="128" depart="234.00" departLane="n3ton4_0" departPos="5.10" departSpeed="0.00" departDelay="106.00" arrival="246.00" arrivalLane="n4ton0_0" arrivalPos="39.60" arrivalSpeed="14.86" duration="12.00" routeLength="83.13" waitingTime="0.00" waitingCount="0" stopTime="0.00" timeLoss="5.16" rerouteNo="0" devices="tripinfo_128" vType="DEFAULT_VEHTYPE" speedFactor="1.06" vaporized=""/>
    <tripinfo id="133" depart="237.00" departLane="n3ton4_0" departPos="5.10" departSpeed="0.00" departDelay="104.00" arrival="247.00" arrivalLane="n4ton1_0" arrivalPos="39.60" arrivalSpeed="15.74" duration="10.00" routeLength="94.90" waitingTime="0.00" waitingCount="0" stopTime="0.00" timeLoss="4.13" rerouteNo="0" devices="tripinfo_133" vType="DEFAULT_VEHTYPE" speedFactor="1.07" vaporized=""/>
    <tripinfo id="153" depart="241.00" departLane="n3ton4_0" departPos="5.10" departSpeed="0.00" departDelay="88.00" arrival="251.00" arrivalLane="n4ton1_0" arrivalPos="39.60" arrivalSpeed="15.63" duration="10.00" routeLength="94.90" waitingTime="0.00" waitingCount="0" stopTime="0.00" timeLoss="3.60" rerouteNo="0" devices="tripinfo_153" vType="DEFAULT_VEHTYPE" speedFactor="1.01" vaporized=""/>
    <tripinfo id="171" depart="235.00" departLane="n1ton4_0" departPos="5.10" departSpeed="0.00" departDelay="64.00" arrival="251.00" arrivalLane="n4ton2_0" arrivalPos="39.60" arrivalSpeed="14.45" duration="16.00" routeLength="83.13" waitingTime="0.00" waitingCount="0" stopTime="0.00" timeLoss="10.04" rerouteNo="0" devices="tripinfo_171" vType="DEFAULT_VEHTYPE" speedFactor="1.12" vaporized=""/>
    <tripinfo id="186" depart="238.00" departLane="n1ton4_0" departPos="5.10" departSpeed="0.00" departDelay="52.00" arrival="253.00" arrivalLane="n4ton2_0" arrivalPos="39.60" arrivalSpeed="13.09" duration="15.00" routeLength="83.13" waitingTime="0.00" waitingCount="0" stopTime="0.00" timeLoss="8.56" rerouteNo="0" devices="tripinfo_186" vType="DEFAULT_VEHTYPE" speedFactor="0.95" vaporized=""/>