<?xml version="1.0" encoding="UTF-8"?>

<!-- generated on Wed Apr 29 02:34:36 2020 by Eclipse SUMO GUI Version 1.5.0
<configuration xmlns:xsi="http://www.w3.org/2001/XMLSchema-instance" xsi:noNamespaceSchemaLocation="http://sumo.dlr.de/xsd/sumoConfiguration.xsd">

    <input>
        <net-file value="my_net.net.xml"/>
        <route-files value="my_route.rou.xml"/>
        <additional-files value="demo.add.xml"/>
    </input>

    <output>
        <tripinfo-output value="tripinfo.xml"/>
    </output>

    <time>
        <begin value="0"/>
        <end value="2000"/>
    </time>

    <traci_server>
        <remote-port value="61897"/>
    </traci_server>

</configuration>
-->

<tripinfos xmlns:xsi="http://www.w3.org/2001/XMLSchema-instance" xsi:noNamespaceSchemaLocation="http://sumo.dlr.de/xsd/tripinfo_file.xsd">
    <tripinfo id="3" depart="3.00" departLane="n3ton4_0" departPos="5.10" departSpeed="0.00" departDelay="0.00" arrival="13.00" arrivalLane="n4ton1_0" arrivalPos="39.60" arrivalSpeed="15.02" duration="10.00" routeLength="94.90" waitingTime="0.00" waitingCount="0" stopTime="0.00" timeLoss="3.86" rerouteNo="0" devices="tripinfo_3" vType="DEFAULT_VEHTYPE" speedFactor="1.01" vaporized=""/>
    <tripinfo id="2" depart="2.00" departLane="n3ton4_0" departPos="5.10" departSpeed="0.00" departDelay="0.00" arrival="14.00" arrivalLane="n4ton2_1" arrivalPos="39.60" arrivalSpeed="13.40" duration="12.00" routeLength="93.45" waitingTime="0.00" waitingCount="0" stopTime="0.00" timeLoss="4.49" rerouteNo="0" devices="tripinfo_2" vType="DEFAULT_VEHTYPE" speedFactor="0.94" vaporized=""/>
    <tripinfo id="4" depart="6.00" departLane="n3ton4_0" departPos="5.10" departSpeed="0.00" departDelay="2.00" arrival="17.00" arrivalLane="n4ton0_0" arrivalPos="39.60" arrivalSpeed="15.51" duration="11.00" routeLength="83.13" waitingTime="0.00" waitingCount="0" stopTime="0.00" timeLoss="5.13" rerouteNo="0" devices="tripinfo_4" vType="DEFAULT_VEHTYPE" speedFactor="1.08" vaporized=""/>
    <tripinfo id="7" depart="9.00" departLane="n3ton4_0" departPos="5.10" departSpeed="0.00" departDelay="2.00" arrival="21.00" arrivalLane="n4ton2_1" arrivalPos="39.60" arrivalSpeed="12.28" duration="12.00" routeLength="93.45" waitingTime="0.00" waitingCount="0" stopTime="0.00" timeLoss="3.62" rerouteNo="0" devices="tripinfo_7" vType="DEFAULT_VEHTYPE" speedFactor="0.83" vaporized=""/>
    <tripinfo id="14" depart="14.00" departLane="n3ton4_0" departPos="5.10" departSpeed="0.00" departDelay="0.00" arrival="26.00" arrivalLane="n4ton2_1" arrivalPos="39.60" arrivalSpeed="12.96" duration="12.00" routeLength="93.45" waitingTime="0.00" waitingCount="0" stopTime="0.00" timeLoss="3.65" rerouteNo="0" devices="tripinfo_14" vType="DEFAULT_VEHTYPE" speedFactor="0.86" vaporized=""/>
    <tripinfo id="20" depart="20.00" departLane="n3ton4_0" departPos="5.10" departSpeed="0.00" departDelay="0.00" arrival="30.00" arrivalLane="n4ton1_0" arrivalPos="39.60" arrivalSpeed="15.38" duration="10.00" routeLength="94.90" waitingTime="0.00" waitingCount="0" stopTime="0.00" timeLoss="3.75" rerouteNo="0" devices="tripinfo_20" vType="DEFAULT_VEHTYPE" speedFactor="0.99" vaporized=""/>
    <tripinfo id="22" depart="23.00" departLane="n3ton4_0" departPos="5.10" departSpeed="0.00" departDelay="1.00" arrival="35.00" arrivalLane="n4ton2_1" arrivalPos="39.60" arrivalSpeed="13.64" duration="12.00" routeLength="93.45" waitingTime="0.00" waitingCount="0" stopTime="0.00" timeLoss="4.09" rerouteNo="0" devices="tripinfo_22" vType="DEFAULT_VEHTYPE" speedFactor="0.88" vaporized=""/>
    <tripinfo id="23" depart="24.00" departLane="n3ton4_0" departPos="5.10" departSpeed="0.00" departDelay="1.00" arrival="38.00" arrivalLane="n4ton2_1" arrivalPos="39.60" arrivalSpeed="14.35" duration="14.00" routeLength="93.45" waitingTime="0.00" waitingCount="0" stopTime="0.00" timeLoss="6.84" rerouteNo="0" devices="tripinfo_23" vType="DEFAULT_VEHTYPE" speedFactor="0.94" vaporized=""/>
    <tripinfo id="28" depart="28.00" departLane="n3ton4_0" departPos="5.10" departSpeed="0.00" departDelay="0.00" arrival="38.00" arrivalLane="n4ton1_0" arrivalPos="39.60" arrivalSpeed="16.12" duration="10.00" routeLength="94.90" waitingTime="0.00" waitingCount="0" stopTime="0.00" timeLoss="3.87" rerouteNo="0" devices="tripinfo_28" vType="DEFAULT_VEHTYPE" speedFactor="1.01" vaporized=""/>
    <tripinfo id="18" depart="18.00" departLane="n1ton4_0" departPos="5.10" departSpeed="0.00" departDelay="0.00" arrival="43.00" arrivalLane="n4ton2_0" arrivalPos="39.60" arrivalSpeed="15.01" duration="25.00" routeLength="83.13" waitingTime="11.00" waitingCount="1" stopTime="0.00" timeLoss="19.11" rerouteNo="0" devices="tripinfo_18" vType="DEFAULT_VEHTYPE" speedFactor="1.05" vaporized=""/>
    <tripinfo id="32" depart="33.00" departLane="n0ton4_0" departPos="5.10" departSpeed="0.00" departDelay="1.00" arrival="49.00" arrivalLane="n4ton3_1" arrivalPos="39.60" arrivalSpeed="12.57" duration="16.00" routeLength="93.45" waitingTime="0.00" waitingCount="0" stopTime="0.00" timeLoss="7.77" rerouteNo="0" devices="tripinfo_32" vType="DEFAULT_VEHTYPE" speedFactor="0.83" vaporized=""/>
    <tripinfo id="5" depart="5.00" departLane="n2ton4_0" departPos="5.10" departSpeed="0.00" departDelay="0.00" arrival="50.00" arrivalLane="n4ton1_1" arrivalPos="39.60" arrivalSpeed="14.25" duration="45.00" routeLength="93.45" waitingTime="29.00" waitingCount="1" stopTime="0.00" timeLoss="38.58" rerouteNo="0" devices="tripinfo_5" vType="DEFAULT_VEHTYPE" speedFactor="1.03" vaporized=""/>
    <tripinfo id="34" depart="34.00" departLane="n0ton4_0" departPos="5.10" departSpeed="0.00" departDelay="0.00" arrival="52.00" arrivalLane="n4ton3_1" arrivalPos="39.60" arrivalSpeed="13.83" duration="18.00" routeLength="93.45" waitingTime="0.00" waitingCount="0" stopTime="0.00" timeLoss="9.62" rerouteNo="0" devices="tripinfo_34" vType="DEFAULT_VEHTYPE" speedFactor="0.87" vaporized=""/>
    <tripinfo id="19" depart="19.00" departLane="n2ton4_0" departPos="5.10" departSpeed="0.00" departDelay="0.00" arrival="53.00" arrivalLane="n4ton1_1" arrivalPos="39.60" arrivalSpeed="17.06" duration="34.00" routeLength="93.45" waitingTime="15.00" waitingCount="1" stopTime="0.00" timeLoss="27.38" rerouteNo="0" devices="tripinfo_19" vType="DEFAULT_VEHTYPE" speedFactor="1.12" vaporized=""/>
    <tripinfo id="40" depart="40.00" departLane="n0ton4_0" departPos="5.10" departSpeed="0.00" departDelay="0.00" arrival="53.00" arrivalLane="n4ton3_1" arrivalPos="39.60" arrivalSpeed="14.90" duration="13.00" routeLength="93.45" waitingTime="0.00" waitingCount="0" stopTime="0.00" timeLoss="7.24" rerouteNo="0" devices="tripinfo_40" vType="DEFAULT_VEHTYPE" speedFactor="1.13" vaporized=""/>
    <tripinfo id="25" depart="25.00" departLane="n2ton4_0" departPos="5.10" departSpeed="0.00" departDelay="0.00" arrival="54.00" arrivalLane="n4ton1_1" arrivalPos="39.60" arrivalSpeed="16.38" duration="29.00" routeLength="93.45" waitingTime="12.00" waitingCount="1" stopTime="0.00" timeLoss="22.96" rerouteNo="0" devices="tripinfo_25" vType="DEFAULT_VEHTYPE" speedFactor="1.16" vaporized=""/>
    <tripinfo id="42" depart="42.00" departLane="n0ton4_0" departPos="5.10" departSpeed="0.00" departDelay="0.00" arrival="56.00" arrivalLane="n4ton3_1" arrivalPos="39.60" arrivalSpeed="14.01" duration="14.00" routeLength="93.45" waitingTime="0.00" waitingCount="0" stopTime="0.00" timeLoss="6.26" rerouteNo="0" devices="tripinfo_42" vType="DEFAULT_VEHTYPE" speedFactor="0.93" vaporized=""/>
    <tripinfo id="1" depart="1.00" departLane="n0ton4_0" departPos="5.10" departSpeed="0.00" departDelay="0.00" arrival="62.00" arrivalLane="n4ton1_0" arrivalPos="39.60" arrivalSpeed="13.96" duration="61.00" routeLength="83.13" waitingTime="45.00" waitingCount="1" stopTime="0.00" timeLoss="55.09" rerouteNo="0" devices="tripinfo_1" vType="DEFAULT_VEHTYPE" speedFactor="1.06" vaporized=""/>
    <tripinfo id="9" depart="9.00" departLane="n0ton4_0" departPos="5.10" departSpeed="0.00" departDelay="0.00" arrival="65.00" arrivalLane="n4ton1_0" arrivalPos="39.60" arrivalSpeed="13.30" duration="56.00" routeLength="83.13" waitingTime="39.00" waitingCount="1" stopTime="0.00" timeLoss="48.55" rerouteNo="0" devices="tripinfo_9" vType="DEFAULT_VEHTYPE" speedFactor="0.89" vaporized=""/>
    <tripinfo id="30" depart="30.00" departLane="n0ton4_0" departPos="5.10" departSpeed="0.00" departDelay="0.00" arrival="67.00" arrivalLane="n4ton2_0" arrivalPos="39.60" arrivalSpeed="12.99" duration="37.00" routeLength="94.90" waitingTime="22.00" waitingCount="1" stopTime="0.00" timeLoss="29.50" rerouteNo="0" devices="tripinfo_30" vType="DEFAULT_VEHTYPE" speedFactor="0.89" vaporized=""/>
    <tripinfo id="36" depart="37.00" departLane="n0ton4_0" departPos="5.10" departSpeed="0.00" departDelay="1.00" arrival="69.00" arrivalLane="n4ton1_0" arrivalPos="39.60" arrivalSpeed="13.38" duration="32.00" routeLength="83.13" waitingTime="17.00" waitingCount="1" stopTime="0.00" timeLoss="25.56" rerouteNo="0" devices="tripinfo_36" vType="DEFAULT_VEHTYPE" speedFactor="0.92" vaporized=""/>
    <tripinfo id="60" depart="60.00" departLane="n0ton4_0" departPos="5.10" departSpeed="0.00" departDelay="0.00" arrival="72.00" arrivalLane="n4ton1_0" arrivalPos="39.60" arrivalSpeed="14.04" duration="12.00" routeLength="83.13" waitingTime="0.00" waitingCount="0" stopTime="0.00" timeLoss="5.81" rerouteNo="0" devices="tripinfo_60" vType="DEFAULT_VEHTYPE" speedFactor="1.00" vaporized=""/>
    <tripinfo id="12" depart="12.00" departLane="n2ton4_0" departPos="5.10" departSpeed="0.00" departDelay="0.00" arrival="80.00" arrivalLane="n4ton0_0" arrivalPos="39.60" arrivalSpeed="14.75" duration="68.00" routeLength="94.90" waitingTime="53.00" waitingCount="1" stopTime="0.00" timeLoss="61.35" rerouteNo="0" devices="tripinfo_12" vType="DEFAULT_VEHTYPE" speedFactor="0.94" vaporized=""/>
    <tripinfo id="46" depart="46.00" departLane="n2ton4_0" departPos="5.10" departSpeed="0.00" departDelay="0.00" arrival="92.00" arrivalLane="n4ton0_0" arrivalPos="39.60" arrivalSpeed="16.19" duration="46.00" routeLength="94.90" waitingTime="26.00" waitingCount="1" stopTime="0.00" timeLoss="40.72" rerouteNo="0" devices="tripinfo_46" vType="DEFAULT_VEHTYPE" speedFactor="1.17" vaporized=""/>
    <tripinfo id="47" depart="79.00" departLane="n2ton4_0" departPos="5.10" departSpeed="0.00" departDelay="32.00" arrival="94.00" arrivalLane="n4ton0_0" arrivalPos="39.60" arrivalSpeed="14.95" duration="15.00" routeLength="94.90" waitingTime="0.00" waitingCount="0" stopTime="0.00" timeLoss="8.44" rerouteNo="0" devices="tripinfo_47" vType="DEFAULT_VEHTYPE" speedFactor="0.99" vaporized=""/>
    <tripinfo id="48" depart="83.00" departLane="n2ton4_0" departPos="5.10" departSpeed="0.00" departDelay="35.00" arrival="95.00" arrivalLane="n4ton0_0" arrivalPos="39.60" arrivalSpeed="16.00" duration="12.00" routeLength="94.90" waitingTime="0.00" waitingCount="0" stopTime="0.00" timeLoss="6.08" rerouteNo="0" devices="tripinfo_48" vType="DEFAULT_VEHTYPE" speedFactor="1.02" vaporized=""/>
    <tripinfo id="8" depart="8.00" departLane="n1ton4_0" departPos="5.10" departSpeed="0.00" departDelay="0.00" arrival="97.00" arrivalLane="n4ton3_0" arrivalPos="39.60" arrivalSpeed="0.30" duration="89.00" routeLength="94.90" waitingTime="17.00" waitingCount="1" stopTime="0.00" timeLoss="83.33" rerouteNo="0" devices="tripinfo_8" vType="DEFAULT_VEHTYPE" speedFactor="1.05" vaporized=""/>
    <tripinfo id="49" depart="49.00" departLane="n0ton4_0" departPos="5.10" departSpeed="0.00" departDelay="0.00" arrival="100.00" arrivalLane="n4ton3_0" arrivalPos="39.60" arrivalSpeed="6.05" duration="51.00" routeLength="93.45" waitingTime="0.00" waitingCount="0" stopTime="0.00" timeLoss="43.89" rerouteNo="0" devices="tripinfo_49" vType="DEFAULT_VEHTYPE" speedFactor="0.97" vaporized=""/>
    <tripinfo id="50" depart="50.00" departLane="n0ton4_0" departPos="5.10" departSpeed="0.00" departDelay="0.00" arrival="102.00" arrivalLane="n4ton3_0" arrivalPos="39.60" arrivalSpeed="6.70" duration="52.00" routeLength="93.45" waitingTime="0.00" waitingCount="0" stopTime="0.00" timeLoss="45.97" rerouteNo="0" devices="tripinfo_50" vType="DEFAULT_VEHTYPE" speedFactor="1.18" vaporized=""/>
    <tripinfo id="17" depart="17.00" departLane="n1ton4_0" departPos="5.10" departSpeed="0.00" departDelay="0.00" arrival="122.00" arrivalLane="n4ton0_1" arrivalPos="39.60" arrivalSpeed="14.45" duration="105.00" routeLength="93.45" waitingTime="89.00" waitingCount="1" stopTime="0.00" timeLoss="97.96" rerouteNo="0" devices="tripinfo_17" vType="DEFAULT_VEHTYPE" speedFactor="1.03" vaporized=""/>
    <tripinfo id="29" depart="31.00" departLane="n3ton4_0" departPos="5.10" departSpeed="0.00" departDelay="2.00" arrival="123.00" arrivalLane="n4ton2_1" arrivalPos="39.60" arrivalSpeed="14.76" duration="92.00" routeLength="93.45" waitingTime="75.00" waitingCount="1" stopTime="0.00" timeLoss="84.22" rerouteNo="0" devices="tripinfo_29" vType="DEFAULT_VEHTYPE" speedFactor="0.98" vaporized=""/>
    <tripinfo id="52" depart="52.00" departLane="n3ton4_0" departPos="5.10" departSpeed="0.00" departDelay="0.00" arrival="124.00" arrivalLane="n4ton2_1" arrivalPos="39.60" arrivalSpeed="13.76" duration="72.00" routeLength="93.45" waitingTime="57.00" waitingCount="1" stopTime="0.00" timeLoss="65.72" rerouteNo="0" devices="tripinfo_52" vType="DEFAULT_VEHTYPE" speedFactor="1.10" vaporized=""/>
    <tripinfo id="45" depart="47.00" departLane="n1ton4_0" departPos="5.10" departSpeed="0.00" departDelay="2.00" arrival="125.00" arrivalLane="n4ton0_1" arrivalPos="39.60" arrivalSpeed="14.82" duration="78.00" routeLength="93.45" waitingTime="60.00" waitingCount="1" stopTime="0.00" timeLoss="70.84" rerouteNo="0" devices="tripinfo_45" vType="DEFAULT_VEHTYPE" speedFactor="1.01" vaporized=""/>
    <tripinfo id="69" depart="69.00" departLane="n1ton4_0" departPos="5.10" departSpeed="0.00" departDelay="0.00" arrival="126.00" arrivalLane="n4ton0_1" arrivalPos="39.60" arrivalSpeed="15.68" duration="57.00" routeLength="93.45" waitingTime="40.00" waitingCount="1" stopTime="0.00" timeLoss="51.21" rerouteNo="0" devices="tripinfo_69" vType="DEFAULT_VEHTYPE" speedFactor="1.17" vaporized=""/>
    <tripinfo id="70" depart="70.00" departLane="n1ton4_0" departPos="5.10" departSpeed="0.00" departDelay="0.00" arrival="129.00" arrivalLane="n4ton0_1" arrivalPos="39.60" arrivalSpeed="15.08" duration="59.00" routeLength="93.45" waitingTime="40.00" waitingCount="1" stopTime="0.00" timeLoss="51.74" rerouteNo="0" devices="tripinfo_70" vType="DEFAULT_VEHTYPE" speedFactor="1.02" vaporized=""/>
    <tripinfo id="79" depart="79.00" departLane="n1ton4_0" departPos="5.10" departSpeed="0.00" departDelay="0.00" arrival="130.00" arrivalLane="n4ton0_1" arrivalPos="39.60" arrivalSpeed="15.40" duration="51.00" routeLength="93.45" waitingTime="36.00" waitingCount="1" stopTime="0.00" timeLoss="45.01" rerouteNo="0" devices="tripinfo_79" vType="DEFAULT_VEHTYPE" speedFactor="1.14" vaporized=""/>
    <tripinfo id="24" depart="24.00" departLane="n1ton4_0" departPos="5.10" departSpeed="0.00" departDelay="0.00" arrival="137.00" arrivalLane="n4ton3_1" arrivalPos="39.60" arrivalSpeed="0.30" duration="113.00" routeLength="94.90" waitingTime="5.00" waitingCount="1" stopTime="0.00" timeLoss="106.67" rerouteNo="0" devices="tripinfo_24" vType="DEFAULT_VEHTYPE" speedFactor="0.94" vaporized=""/>
    <tripinfo id="53" depart="53.00" departLane="n3ton4_0" departPos="5.10" departSpeed="0.00" departDelay="0.00" arrival="139.00" arrivalLane="n4ton1_0" arrivalPos="39.60" arrivalSpeed="14.23" duration="86.00" routeLength="94.90" waitingTime="70.00" waitingCount="1" stopTime="0.00" timeLoss="78.88" rerouteNo="0" devices="tripinfo_53" vType="DEFAULT_VEHTYPE" speedFactor="0.90" vaporized=""/>
    <tripinfo id="59" depart="59.00" departLane="n0ton4_0" departPos="5.10" departSpeed="0.00" departDelay="0.00" arrival="140.00" arrivalLane="n4ton3_1" arrivalPos="39.60" arrivalSpeed="6.54" duration="81.00" routeLength="93.45" waitingTime="0.00" waitingCount="0" stopTime="0.00" timeLoss="74.52" rerouteNo="0" devices="tripinfo_59" vType="DEFAULT_VEHTYPE" speedFactor="1.09" vaporized=""/>
    <tripinfo id="21" depart="21.00" departLane="n2ton4_0" departPos="5.10" departSpeed="0.00" departDelay="0.00" arrival="142.00" arrivalLane="n4ton3_1" arrivalPos="39.60" arrivalSpeed="8.42" duration="121.00" routeLength="83.13" waitingTime="49.00" waitingCount="2" stopTime="0.00" timeLoss="114.04" rerouteNo="0" devices="tripinfo_21" vType="DEFAULT_VEHTYPE" speedFactor="0.93" vaporized=""/>
    <tripinfo id="54" depart="56.00" departLane="n3ton4_0" departPos="5.10" departSpeed="0.00" departDelay="2.00" arrival="142.00" arrivalLane="n4ton1_0" arrivalPos="39.60" arrivalSpeed="15.12" duration="86.00" routeLength="94.90" waitingTime="69.00" waitingCount="1" stopTime="0.00" timeLoss="79.53" rerouteNo="0" devices="tripinfo_54" vType="DEFAULT_VEHTYPE" speedFactor="1.03" vaporized=""/>
    <tripinfo id="56" depart="59.00" departLane="n3ton4_0" departPos="5.10" departSpeed="0.00" departDelay="3.00" arrival="143.00" arrivalLane="n4ton1_0" arrivalPos="39.60" arrivalSpeed="15.94" duration="84.00" routeLength="94.90" waitingTime="68.00" waitingCount="1" stopTime="0.00" timeLoss="78.46" rerouteNo="0" devices="tripinfo_56" vType="DEFAULT_VEHTYPE" speedFactor="1.09" vaporized=""/>
    <tripinfo id="55" depart="86.00" departLane="n2ton4_0" departPos="5.10" departSpeed="0.00" departDelay="31.00" arrival="144.00" arrivalLane="n4ton3_1" arrivalPos="39.60" arrivalSpeed="8.76" duration="58.00" routeLength="83.13" waitingTime="0.00" waitingCount="0" stopTime="0.00" timeLoss="51.51" rerouteNo="0" devices="tripinfo_55" vType="DEFAULT_VEHTYPE" speedFactor="0.96" vaporized=""/>
    <tripinfo id="57" depart="62.00" departLane="n3ton4_0" departPos="5.10" departSpeed="0.00" departDelay="5.00" arrival="146.00" arrivalLane="n4ton0_0" arrivalPos="39.60" arrivalSpeed="14.14" duration="84.00" routeLength="83.13" waitingTime="67.00" waitingCount="1" stopTime="0.00" timeLoss="78.03" rerouteNo="0" devices="tripinfo_57" vType="DEFAULT_VEHTYPE" speedFactor="1.04" vaporized=""/>
    <tripinfo id="86" depart="92.00" departLane="n2ton4_0" departPos="5.10" departSpeed="0.00" departDelay="6.00" arrival="146.00" arrivalLane="n4ton3_1" arrivalPos="39.60" arrivalSpeed="10.42" duration="54.00" routeLength="83.13" waitingTime="0.00" waitingCount="0" stopTime="0.00" timeLoss="47.52" rerouteNo="0" devices="tripinfo_86" vType="DEFAULT_VEHTYPE" speedFactor="0.99" vaporized=""/>
    <tripinfo id="62" depart="65.00" departLane="n3ton4_0" departPos="5.10" departSpeed="0.00" departDelay="3.00" arrival="148.00" arrivalLane="n4ton1_0" arrivalPos="39.60" arrivalSpeed="14.17" duration="83.00" routeLength="94.90" waitingTime="66.00" waitingCount="1" stopTime="0.00" timeLoss="75.85" rerouteNo="0" devices="tripinfo_62" vType="DEFAULT_VEHTYPE" speedFactor="0.90" vaporized=""/>
    <tripinfo id="66" depart="142.00" departLane="n3ton4_0" departPos="5.10" departSpeed="0.00" departDelay="76.00" arrival="154.00" arrivalLane="n4ton0_0" arrivalPos="39.60" arrivalSpeed="12.55" duration="12.00" routeLength="83.13" waitingTime="0.00" waitingCount="0" stopTime="0.00" timeLoss="5.14" rerouteNo="0" devices="tripinfo_66" vType="DEFAULT_VEHTYPE" speedFactor="0.85" vaporized=""/>
    <tripinfo id="71" depart="145.00" departLane="n3ton4_0" departPos="5.10" departSpeed="0.00" departDelay="74.00" arrival="156.00" arrivalLane="n4ton1_0" arrivalPos="39.60" arrivalSpeed="16.53" duration="11.00" routeLength="94.90" waitingTime="0.00" waitingCount="0" stopTime="0.00" timeLoss="5.44" rerouteNo="0" devices="tripinfo_71" vType="DEFAULT_VEHTYPE" speedFactor="1.10" vaporized=""/>
    <tripinfo id="80" depart="148.00" departLane="n3ton4_0" departPos="5.10" departSpeed="0.00" departDelay="68.00" arrival="158.00" arrivalLane="n4ton1_0" arrivalPos="39.60" arrivalSpeed="15.13" duration="10.00" routeLength="94.90" waitingTime="0.00" waitingCount="0" stopTime="0.00" timeLoss="3.94" rerouteNo="0" devices="tripinfo_80" vType="DEFAULT_VEHTYPE" speedFactor="1.02" vaporized=""/>
    <tripinfo id="81" depart="151.00" departLane="n3ton4_0" departPos="5.10" departSpeed="0.00" departDelay="70.00" arrival="161.00" arrivalLane="n4ton1_0" arrivalPos="39.60" arrivalSpeed="14.22" duration="10.00" routeLength="94.90" waitingTime="0.00" waitingCount="0" stopTime="0.00" timeLoss="3.81" rerouteNo="0" devices="tripinfo_81" vType="DEFAULT_VEHTYPE" speedFactor="0.97" vaporized=""/>
    <tripinfo id="85" depart="154.00" departLane="n3ton4_0" departPos="5.10" departSpeed="0.00" departDelay="69.00" arrival="164.00" arrivalLane="n4ton1_0" arrivalPos="39.60" arrivalSpeed="15.73" duration="10.00" routeLength="94.90" waitingTime="0.00" waitingCount="0" stopTime="0.00" timeLoss="3.31" rerouteNo="0" devices="tripinfo_85" vType="DEFAULT_VEHTYPE" speedFactor="1.02" vaporized=""/>
    <tripinfo id="87" depart="156.00" departLane="n3ton4_0" departPos="5.10" departSpeed="0.00" departDelay="69.00" arrival="167.00" arrivalLane="n4ton1_0" arrivalPos="39.60" arrivalSpeed="14.75" duration="11.00" routeLength="94.90" waitingTime="0.00" waitingCount="0" stopTime="0.00" timeLoss="4.10" rerouteNo="0" devices="tripinfo_87" vType="DEFAULT_VEHTYPE" speedFactor="0.94" vaporized=""/>
    <tripinfo id="88" depart="159.00" departLane="n3ton4_0" departPos="5.10" departSpeed="0.00" departDelay="71.00" arrival="170.00" arrivalLane="n4ton1_0" arrivalPos="39.60" arrivalSpeed="13.67" duration="11.00" routeLength="94.90" waitingTime="0.00" waitingCount="0" stopTime="0.00" timeLoss="3.44" rerouteNo="0" devices="tripinfo_88" vType="DEFAULT_VEHTYPE" speedFactor="0.88" vaporized=""/>
    <tripinfo id="91" depart="162.00" departLane="n3ton4_0" departPos="5.10" departSpeed="0.00" departDelay="71.00" arrival="174.00" arrivalLane="n4ton0_0" arrivalPos="39.60" arrivalSpeed="14.23" duration="12.00" routeLength="83.13" waitingTime="0.00" waitingCount="0" stopTime="0.00" timeLoss="5.37" rerouteNo="0" devices="tripinfo_91" vType="DEFAULT_VEHTYPE" speedFactor="1.04" vaporized=""/>
    <tripinfo id="97" depart="166.00" departLane="n3ton4_0" departPos="5.10" departSpeed="0.00" departDelay="69.00" arrival="176.00" arrivalLane="n4ton1_0" arrivalPos="39.60" arrivalSpeed="14.93" duration="10.00" routeLength="94.90" waitingTime="0.00" waitingCount="0" stopTime="0.00" timeLoss="3.10" rerouteNo="0" devices="tripinfo_97" vType="DEFAULT_VEHTYPE" speedFactor="0.96" vaporized=""/>
    <tripinfo id="92" depart="95.00" departLane="n2ton4_0" departPos="5.10" departSpeed="0.00" departDelay="3.00" arrival="181.00" arrivalLane="n4ton1_1" arrivalPos="39.60" arrivalSpeed="15.33" duration="86.00" routeLength="93.45" waitingTime="70.00" waitingCount="1" stopTime="0.00" timeLoss="78.84" rerouteNo="0" devices="tripinfo_92" vType="DEFAULT_VEHTYPE" speedFactor="1.02" vaporized=""/>
    <tripinfo id="16" depart="16.00" departLane="n2ton4_0" departPos="5.10" departSpeed="0.00" departDelay="0.00" arrival="183.00" arrivalLane="n4ton3_0" arrivalPos="39.60" arrivalSpeed="0.30" duration="167.00" routeLength="83.13" waitingTime="51.00" waitingCount="1" stopTime="0.00" timeLoss="161.29" rerouteNo="0" devices="tripinfo_16" vType="DEFAULT_VEHTYPE" speedFactor="1.09" vaporized=""/>
    <tripinfo id="114" depart="114.00" departLane="n2ton4_0" departPos="5.10" departSpeed="0.00" departDelay="0.00" arrival="183.00" arrivalLane="n4ton1_1" arrivalPos="39.60" arrivalSpeed="13.63" duration="69.00" routeLength="93.45" waitingTime="53.00" waitingCount="1" stopTime="0.00" timeLoss="61.87" rerouteNo="0" devices="tripinfo_114" vType="DEFAULT_VEHTYPE" speedFactor="1.00" vaporized=""/>
    <tripinfo id="118" depart="118.00" departLane="n2ton4_0" departPos="5.10" departSpeed="0.00" departDelay="0.00" arrival="185.00" arrivalLane="n4ton1_1" arrivalPos="39.60" arrivalSpeed="15.11" duration="67.00" routeLength="93.45" waitingTime="51.00" waitingCount="1" stopTime="0.00" timeLoss="59.85" rerouteNo="0" devices="tripinfo_118" vType="DEFAULT_VEHTYPE" speedFactor="1.02" vaporized=""/>
    <tripinfo id="78" depart="78.00" departLane="n0ton4_0" departPos="5.10" departSpeed="0.00" departDelay="0.00" arrival="194.00" arrivalLane="n4ton2_0" arrivalPos="39.60" arrivalSpeed="13.92" duration="116.00" routeLength="94.90" waitingTime="100.00" waitingCount="1" stopTime="0.00" timeLoss="108.56" rerouteNo="0" devices="tripinfo_78" vType="DEFAULT_VEHTYPE" speedFactor="0.90" vaporized=""/>
    <tripinfo id="111" depart="111.00" departLane="n0ton4_0" departPos="5.10" departSpeed="0.00" departDelay="0.00" arrival="195.00" arrivalLane="n4ton2_0" arrivalPos="39.60" arrivalSpeed="14.61" duration="84.00" routeLength="94.90" waitingTime="68.00" waitingCount="1" stopTime="0.00" timeLoss="77.66" rerouteNo="0" devices="tripinfo_111" vType="DEFAULT_VEHTYPE" speedFactor="0.97" vaporized=""/>
    <tripinfo id="112" depart="114.00" departLane="n0ton4_0" departPos="5.10" departSpeed="0.00" departDelay="2.00" arrival="197.00" arrivalLane="n4ton1_0" arrivalPos="39.60" arrivalSpeed="15.36" duration="83.00" routeLength="83.13" waitingTime="68.00" waitingCount="1" stopTime="0.00" timeLoss="77.39" rerouteNo="0" devices="tripinfo_112" vType="DEFAULT_VEHTYPE" speedFactor="1.15" vaporized=""/>
    <tripinfo id="113" depart="117.00" departLane="n0ton4_0" departPos="5.10" departSpeed="0.00" departDelay="4.00" arrival="200.00" arrivalLane="n4ton2_0" arrivalPos="39.60" arrivalSpeed="15.58" duration="83.00" routeLength="94.90" waitingTime="65.00" waitingCount="1" stopTime="0.00" timeLoss="76.03" rerouteNo="0" devices="tripinfo_113" vType="DEFAULT_VEHTYPE" speedFactor="0.98" vaporized=""/>
    <tripinfo id="127" depart="127.00" departLane="n0ton4_0" departPos="5.10" departSpeed="0.00" departDelay="0.00" arrival="201.00" arrivalLane="n4ton2_0" arrivalPos="39.60" arrivalSpeed="15.01" duration="74.00" routeLength="94.90" waitingTime="59.00" waitingCount="1" stopTime="0.00" timeLoss="68.01" rerouteNo="0" devices="tripinfo_127" vType="DEFAULT_VEHTYPE" speedFactor="1.01" vaporized=""/>
    <tripinfo id="130" depart="192.00" departLane="n0ton4_0" departPos="5.10" departSpeed="0.00" departDelay="62.00" arrival="204.00" arrivalLane="n4ton1_0" arrivalPos="39.60" arrivalSpeed="14.79" duration="12.00" routeLength="83.13" waitingTime="0.00" waitingCount="0" stopTime="0.00" timeLoss="6.14" rerouteNo="0" devices="tripinfo_130" vType="DEFAULT_VEHTYPE" speedFactor="1.10" vaporized=""/>
    <tripinfo id="132" depart="195.00" departLane="n0ton4_0" departPos="5.10" departSpeed="0.00" departDelay="63.00" arrival="207.00" arrivalLane="n4ton1_0" arrivalPos="39.60" arrivalSpeed="14.08" duration="12.00" routeLength="83.13" waitingTime="0.00" waitingCount="0" stopTime="0.00" timeLoss="5.61" rerouteNo="0" devices="tripinfo_132" vType="DEFAULT_VEHTYPE" speedFactor="1.07" vaporized=""/>
    <tripinfo id="43" depart="43.00" departLane="n2ton4_0" departPos="5.10" departSpeed="0.00" departDelay="0.00" arrival="210.00" arrivalLane="n4ton3_1" arrivalPos="39.60" arrivalSpeed="0.30" duration="167.00" routeLength="83.13" waitingTime="26.00" waitingCount="1" stopTime="0.00" timeLoss="161.87" rerouteNo="0" devices="tripinfo_43" vType="DEFAULT_VEHTYPE" speedFactor="1.18" vaporized=""/>
    <tripinfo id="175" depart="202.00" departLane="n0ton4_0" departPos="5.10" departSpeed="0.00" departDelay="27.00" arrival="213.00" arrivalLane="n4ton2_0" arrivalPos="39.60" arrivalSpeed="12.60" duration="11.00" routeLength="94.90" waitingTime="0.00" waitingCount="0" stopTime="0.00" timeLoss="3.05" rerouteNo="0" devices="tripinfo_175" vType="DEFAULT_VEHTYPE" speedFactor="0.82" vaporized=""/>
    <tripinfo id="176" depart="205.00" departLane="n0ton4_0" departPos="5.10" departSpeed="0.00" departDelay="29.00" arrival="215.00" arrivalLane="n4ton2_0" arrivalPos="39.60" arrivalSpeed="16.62" duration="10.00" routeLength="94.90" waitingTime="0.00" waitingCount="0" stopTime="0.00" timeLoss="4.38" rerouteNo="0" devices="tripinfo_176" vType="DEFAULT_VEHTYPE" speedFactor="1.12" vaporized=""/>
    <tripinfo id="185" depart="209.00" departLane="n0ton4_0" departPos="5.10" departSpeed="0.00" departDelay="24.00" arrival="219.00" arrivalLane="n4ton2_0" arrivalPos="39.60" arrivalSpeed="16.76" duration="10.00" routeLength="94.90" waitingTime="0.00" waitingCount="0" stopTime="0.00" timeLoss="3.93" rerouteNo="0" devices="tripinfo_185" vType="DEFAULT_VEHTYPE" speedFactor="1.12" vaporized=""/>
    <tripinfo id="103" depart="103.00" departLane="n2ton4_0" departPos="5.10" departSpeed="0.00" departDelay="0.00" arrival="220.00" arrivalLane="n4ton0_0" arrivalPos="39.60" arrivalSpeed="15.95" duration="117.00" routeLength="94.90" waitingTime="91.00" waitingCount="2" stopTime="0.00" timeLoss="110.71" rerouteNo="0" devices="tripinfo_103" vType="DEFAULT_VEHTYPE" speedFactor="1.03" vaporized=""/>
    <tripinfo id="104" depart="106.00" departLane="n2ton4_0" departPos="5.10" departSpeed="0.00" departDelay="2.00" arrival="222.00" arrivalLane="n4ton0_0" arrivalPos="39.60" arrivalSpeed="14.50" duration="116.00" routeLength="94.90" waitingTime="88.00" waitingCount="2" stopTime="0.00" timeLoss="109.74" rerouteNo="0" devices="tripinfo_104" vType="DEFAULT_VEHTYPE" speedFactor="0.98" vaporized=""/>
    <tripinfo id="186" depart="212.00" departLane="n0ton4_0" departPos="5.10" departSpeed="0.00" departDelay="26.00" arrival="222.00" arrivalLane="n4ton2_0" arrivalPos="39.60" arrivalSpeed="16.19" duration="10.00" routeLength="94.90" waitingTime="0.00" waitingCount="0" stopTime="0.00" timeLoss="3.66" rerouteNo="0" devices="tripinfo_186" vType="DEFAULT_VEHTYPE" speedFactor="1.02" vaporized=""/>