<?xml version="1.0" encoding="UTF-8"?>

<!-- generated on Wed Apr 29 02:28:22 2020 by Eclipse SUMO GUI Version 1.5.0
<configuration xmlns:xsi="http://www.w3.org/2001/XMLSchema-instance" xsi:noNamespaceSchemaLocation="http://sumo.dlr.de/xsd/sumoConfiguration.xsd">

    <input>
        <net-file value="my_net.net.xml"/>
        <route-files value="my_route.rou.xml"/>
        <additional-files value="demo.add.xml"/>
    </input>

    <output>
        <tripinfo-output value="tripinfo.xml"/>
    </output>

    <time>
        <begin value="0"/>
        <end value="2000"/>
    </time>

    <traci_server>
        <remote-port value="61813"/>
    </traci_server>

</configuration>
-->

<tripinfos xmlns:xsi="http://www.w3.org/2001/XMLSchema-instance" xsi:noNamespaceSchemaLocation="http://sumo.dlr.de/xsd/tripinfo_file.xsd">
    <tripinfo id="1" depart="1.00" departLane="n3ton4_0" departPos="5.10" departSpeed="0.00" departDelay="0.00" arrival="11.00" arrivalLane="n4ton1_0" arrivalPos="39.60" arrivalSpeed="14.84" duration="10.00" routeLength="94.90" waitingTime="0.00" waitingCount="0" stopTime="0.00" timeLoss="3.18" rerouteNo="0" devices="tripinfo_1" vType="DEFAULT_VEHTYPE" speedFactor="0.94" vaporized=""/>
    <tripinfo id="6" depart="6.00" departLane="n1ton4_0" departPos="5.10" departSpeed="0.00" departDelay="0.00" arrival="18.00" arrivalLane="n4ton2_0" arrivalPos="39.60" arrivalSpeed="15.14" duration="12.00" routeLength="83.13" waitingTime="0.00" waitingCount="0" stopTime="0.00" timeLoss="5.37" rerouteNo="0" devices="tripinfo_6" vType="DEFAULT_VEHTYPE" speedFactor="1.03" vaporized=""/>
    <tripinfo id="12" depart="15.00" departLane="n1ton4_0" departPos="5.10" departSpeed="0.00" departDelay="3.00" arrival="27.00" arrivalLane="n4ton2_0" arrivalPos="39.60" arrivalSpeed="12.77" duration="12.00" routeLength="83.13" waitingTime="0.00" waitingCount="0" stopTime="0.00" timeLoss="5.22" rerouteNo="0" devices="tripinfo_12" vType="DEFAULT_VEHTYPE" speedFactor="0.86" vaporized=""/>
    <tripinfo id="27" depart="29.00" departLane="n2ton4_0" departPos="5.10" departSpeed="0.00" departDelay="2.00" arrival="41.00" arrivalLane="n4ton1_1" arrivalPos="39.60" arrivalSpeed="14.17" duration="12.00" routeLength="93.45" waitingTime="0.00" waitingCount="0" stopTime="0.00" timeLoss="4.80" rerouteNo="0" devices="tripinfo_27" vType="DEFAULT_VEHTYPE" speedFactor="1.02" vaporized=""/>
    <tripinfo id="2" depart="2.00" departLane="n0ton4_0" departPos="5.10" departSpeed="0.00" departDelay="0.00" arrival="48.00" arrivalLane="n4ton1_0" arrivalPos="39.60" arrivalSpeed="13.80" duration="46.00" routeLength="83.13" waitingTime="31.00" waitingCount="1" stopTime="0.00" timeLoss="40.07" rerouteNo="0" devices="tripinfo_2" vType="DEFAULT_VEHTYPE" speedFactor="1.01" vaporized=""/>
    <tripinfo id="3" depart="5.00" departLane="n0ton4_0" departPos="5.10" departSpeed="0.00" departDelay="2.00" arrival="51.00" arrivalLane="n4ton1_0" arrivalPos="39.60" arrivalSpeed="14.60" duration="46.00" routeLength="83.13" waitingTime="30.00" waitingCount="1" stopTime="0.00" timeLoss="39.58" rerouteNo="0" devices="tripinfo_3" vType="DEFAULT_VEHTYPE" speedFactor="1.08" vaporized=""/>
    <tripinfo id="17" depart="17.00" departLane="n0ton4_0" departPos="5.10" departSpeed="0.00" departDelay="0.00" arrival="53.00" arrivalLane="n4ton1_0" arrivalPos="39.60" arrivalSpeed="15.84" duration="36.00" routeLength="83.13" waitingTime="20.00" waitingCount="1" stopTime="0.00" timeLoss="30.14" rerouteNo="0" devices="tripinfo_17" vType="DEFAULT_VEHTYPE" speedFactor="1.12" vaporized=""/>
    <tripinfo id="36" depart="36.00" departLane="n0ton4_0" departPos="5.10" departSpeed="0.00" departDelay="0.00" arrival="56.00" arrivalLane="n4ton1_0" arrivalPos="39.60" arrivalSpeed="12.76" duration="20.00" routeLength="83.13" waitingTime="3.00" waitingCount="1" stopTime="0.00" timeLoss="13.82" rerouteNo="0" devices="tripinfo_36" vType="DEFAULT_VEHTYPE" speedFactor="0.92" vaporized=""/>
    <tripinfo id="40" depart="40.00" departLane="n0ton4_0" departPos="5.10" departSpeed="0.00" departDelay="0.00" arrival="58.00" arrivalLane="n4ton2_0" arrivalPos="39.60" arrivalSpeed="16.05" duration="18.00" routeLength="94.90" waitingTime="1.00" waitingCount="1" stopTime="0.00" timeLoss="12.89" rerouteNo="0" devices="tripinfo_40" vType="DEFAULT_VEHTYPE" speedFactor="1.18" vaporized=""/>
    <tripinfo id="42" depart="48.00" departLane="n0ton4_0" departPos="5.10" departSpeed="0.00" departDelay="6.00" arrival="60.00" arrivalLane="n4ton2_0" arrivalPos="39.60" arrivalSpeed="17.59" duration="12.00" routeLength="94.90" waitingTime="1.00" waitingCount="1" stopTime="0.00" timeLoss="6.51" rerouteNo="0" devices="tripinfo_42" vType="DEFAULT_VEHTYPE" speedFactor="1.15" vaporized=""/>
    <tripinfo id="48" depart="53.00" departLane="n0ton4_0" departPos="5.10" departSpeed="0.00" departDelay="5.00" arrival="65.00" arrivalLane="n4ton1_0" arrivalPos="39.60" arrivalSpeed="13.08" duration="12.00" routeLength="83.13" waitingTime="0.00" waitingCount="0" stopTime="0.00" timeLoss="5.39" rerouteNo="0" devices="tripinfo_48" vType="DEFAULT_VEHTYPE" speedFactor="1.02" vaporized=""/>
    <tripinfo id="51" depart="56.00" departLane="n0ton4_0" departPos="5.10" departSpeed="0.00" departDelay="5.00" arrival="66.00" arrivalLane="n4ton2_0" arrivalPos="39.60" arrivalSpeed="16.57" duration="10.00" routeLength="94.90" waitingTime="0.00" waitingCount="0" stopTime="0.00" timeLoss="4.55" rerouteNo="0" devices="tripinfo_51" vType="DEFAULT_VEHTYPE" speedFactor="1.10" vaporized=""/>
    <tripinfo id="54" depart="59.00" departLane="n0ton4_0" departPos="5.10" departSpeed="0.00" departDelay="5.00" arrival="69.00" arrivalLane="n4ton2_0" arrivalPos="39.60" arrivalSpeed="15.28" duration="10.00" routeLength="94.90" waitingTime="0.00" waitingCount="0" stopTime="0.00" timeLoss="3.31" rerouteNo="0" devices="tripinfo_54" vType="DEFAULT_VEHTYPE" speedFactor="0.96" vaporized=""/>
    <tripinfo id="55" depart="62.00" departLane="n0ton4_0" departPos="5.10" departSpeed="0.00" departDelay="7.00" arrival="72.00" arrivalLane="n4ton2_0" arrivalPos="39.60" arrivalSpeed="16.32" duration="10.00" routeLength="94.90" waitingTime="0.00" waitingCount="0" stopTime="0.00" timeLoss="4.16" rerouteNo="0" devices="tripinfo_55" vType="DEFAULT_VEHTYPE" speedFactor="1.09" vaporized=""/>
    <tripinfo id="58" depart="65.00" departLane="n0ton4_0" departPos="5.10" departSpeed="0.00" departDelay="7.00" arrival="77.00" arrivalLane="n4ton1_0" arrivalPos="39.60" arrivalSpeed="13.11" duration="12.00" routeLength="83.13" waitingTime="0.00" waitingCount="0" stopTime="0.00" timeLoss="6.14" rerouteNo="0" devices="tripinfo_58" vType="DEFAULT_VEHTYPE" speedFactor="1.04" vaporized=""/>
    <tripinfo id="15" depart="18.00" departLane="n1ton4_0" departPos="5.10" departSpeed="0.00" departDelay="3.00" arrival="78.00" arrivalLane="n4ton3_0" arrivalPos="39.60" arrivalSpeed="0.30" duration="60.00" routeLength="94.90" waitingTime="0.00" waitingCount="0" stopTime="0.00" timeLoss="54.22" rerouteNo="0" devices="tripinfo_15" vType="DEFAULT_VEHTYPE" speedFactor="1.03" vaporized=""/>
    <tripinfo id="63" depart="68.00" departLane="n0ton4_0" departPos="5.10" departSpeed="0.00" departDelay="5.00" arrival="79.00" arrivalLane="n4ton2_0" arrivalPos="39.60" arrivalSpeed="13.85" duration="11.00" routeLength="94.90" waitingTime="0.00" waitingCount="0" stopTime="0.00" timeLoss="3.51" rerouteNo="0" devices="tripinfo_63" vType="DEFAULT_VEHTYPE" speedFactor="0.90" vaporized=""/>
    <tripinfo id="24" depart="26.00" departLane="n2ton4_0" departPos="5.10" departSpeed="0.00" departDelay="2.00" arrival="80.00" arrivalLane="n4ton0_0" arrivalPos="39.60" arrivalSpeed="16.14" duration="54.00" routeLength="94.90" waitingTime="24.00" waitingCount="1" stopTime="0.00" timeLoss="48.29" rerouteNo="0" devices="tripinfo_24" vType="DEFAULT_VEHTYPE" speedFactor="1.16" vaporized=""/>
    <tripinfo id="14" depart="14.00" departLane="n0ton4_0" departPos="5.10" departSpeed="0.00" departDelay="0.00" arrival="81.00" arrivalLane="n4ton3_0" arrivalPos="39.60" arrivalSpeed="6.31" duration="67.00" routeLength="93.45" waitingTime="11.00" waitingCount="1" stopTime="0.00" timeLoss="60.54" rerouteNo="0" devices="tripinfo_14" vType="DEFAULT_VEHTYPE" speedFactor="1.09" vaporized=""/>
    <tripinfo id="65" depart="71.00" departLane="n0ton4_0" departPos="5.10" departSpeed="0.00" departDelay="6.00" arrival="82.00" arrivalLane="n4ton2_0" arrivalPos="39.60" arrivalSpeed="12.66" duration="11.00" routeLength="94.90" waitingTime="0.00" waitingCount="0" stopTime="0.00" timeLoss="3.15" rerouteNo="0" devices="tripinfo_65" vType="DEFAULT_VEHTYPE" speedFactor="0.85" vaporized=""/>
    <tripinfo id="34" depart="34.00" departLane="n0ton4_0" departPos="5.10" departSpeed="0.00" departDelay="0.00" arrival="83.00" arrivalLane="n4ton3_0" arrivalPos="39.60" arrivalSpeed="7.92" duration="49.00" routeLength="93.45" waitingTime="0.00" waitingCount="0" stopTime="0.00" timeLoss="40.40" rerouteNo="0" devices="tripinfo_34" vType="DEFAULT_VEHTYPE" speedFactor="0.83" vaporized=""/>
    <tripinfo id="30" depart="59.00" departLane="n2ton4_0" departPos="5.10" departSpeed="0.00" departDelay="29.00" arrival="87.00" arrivalLane="n4ton0_0" arrivalPos="39.60" arrivalSpeed="15.34" duration="28.00" routeLength="94.90" waitingTime="1.00" waitingCount="1" stopTime="0.00" timeLoss="21.69" rerouteNo="0" devices="tripinfo_30" vType="DEFAULT_VEHTYPE" speedFactor="0.98" vaporized=""/>
    <tripinfo id="37" depart="39.00" departLane="n0ton4_0" departPos="5.10" departSpeed="0.00" departDelay="2.00" arrival="88.00" arrivalLane="n4ton3_0" arrivalPos="39.60" arrivalSpeed="8.30" duration="49.00" routeLength="93.45" waitingTime="0.00" waitingCount="0" stopTime="0.00" timeLoss="41.80" rerouteNo="0" devices="tripinfo_37" vType="DEFAULT_VEHTYPE" speedFactor="0.95" vaporized=""/>
    <tripinfo id="38" depart="62.00" departLane="n2ton4_0" departPos="5.10" departSpeed="0.00" departDelay="24.00" arrival="89.00" arrivalLane="n4ton0_0" arrivalPos="39.60" arrivalSpeed="16.53" duration="27.00" routeLength="94.90" waitingTime="0.00" waitingCount="0" stopTime="0.00" timeLoss="21.53" rerouteNo="0" devices="tripinfo_38" vType="DEFAULT_VEHTYPE" speedFactor="1.13" vaporized=""/>
    <tripinfo id="44" depart="74.00" departLane="n2ton4_0" departPos="5.10" departSpeed="0.00" departDelay="30.00" arrival="91.00" arrivalLane="n4ton0_0" arrivalPos="39.60" arrivalSpeed="15.11" duration="17.00" routeLength="94.90" waitingTime="0.00" waitingCount="0" stopTime="0.00" timeLoss="10.78" rerouteNo="0" devices="tripinfo_44" vType="DEFAULT_VEHTYPE" speedFactor="1.01" vaporized=""/>
    <tripinfo id="7" depart="7.00" departLane="n2ton4_0" departPos="5.10" departSpeed="0.00" departDelay="0.00" arrival="93.00" arrivalLane="n4ton3_0" arrivalPos="39.60" arrivalSpeed="7.95" duration="86.00" routeLength="83.13" waitingTime="39.00" waitingCount="1" stopTime="0.00" timeLoss="77.84" rerouteNo="0" devices="tripinfo_7" vType="DEFAULT_VEHTYPE" speedFactor="0.83" vaporized=""/>
    <tripinfo id="45" depart="78.00" departLane="n2ton4_0" departPos="5.10" departSpeed="0.00" departDelay="33.00" arrival="93.00" arrivalLane="n4ton0_0" arrivalPos="39.60" arrivalSpeed="18.46" duration="15.00" routeLength="94.90" waitingTime="0.00" waitingCount="0" stopTime="0.00" timeLoss="9.24" rerouteNo="0" devices="tripinfo_45" vType="DEFAULT_VEHTYPE" speedFactor="1.17" vaporized=""/>
    <tripinfo id="23" depart="23.00" departLane="n2ton4_0" departPos="5.10" departSpeed="0.00" departDelay="0.00" arrival="97.00" arrivalLane="n4ton3_0" arrivalPos="39.60" arrivalSpeed="7.01" duration="74.00" routeLength="83.13" waitingTime="26.00" waitingCount="1" stopTime="0.00" timeLoss="67.61" rerouteNo="0" devices="tripinfo_23" vType="DEFAULT_VEHTYPE" speedFactor="0.94" vaporized=""/>
    <tripinfo id="8" depart="9.00" departLane="n1ton4_0" departPos="5.10" departSpeed="0.00" departDelay="1.00" arrival="102.00" arrivalLane="n4ton0_1" arrivalPos="39.60" arrivalSpeed="14.63" duration="93.00" routeLength="93.45" waitingTime="76.00" waitingCount="1" stopTime="0.00" timeLoss="86.33" rerouteNo="0" devices="tripinfo_8" vType="DEFAULT_VEHTYPE" speedFactor="1.05" vaporized=""/>
    <tripinfo id="9" depart="10.00" departLane="n1ton4_0" departPos="5.10" departSpeed="0.00" departDelay="1.00" arrival="105.00" arrivalLane="n4ton0_1" arrivalPos="39.60" arrivalSpeed="12.92" duration="95.00" routeLength="93.45" waitingTime="77.00" waitingCount="1" stopTime="0.00" timeLoss="86.79" rerouteNo="0" devices="tripinfo_9" vType="DEFAULT_VEHTYPE" speedFactor="0.89" vaporized=""/>
    <tripinfo id="10" depart="13.00" departLane="n1ton4_0" departPos="5.10" departSpeed="0.00" departDelay="3.00" arrival="107.00" arrivalLane="n4ton0_1" arrivalPos="39.60" arrivalSpeed="13.95" duration="94.00" routeLength="93.45" waitingTime="76.00" waitingCount="1" stopTime="0.00" timeLoss="86.23" rerouteNo="0" devices="tripinfo_10" vType="DEFAULT_VEHTYPE" speedFactor="0.94" vaporized=""/>
    <tripinfo id="18" depart="21.00" departLane="n1ton4_0" departPos="5.10" departSpeed="0.00" departDelay="3.00" arrival="109.00" arrivalLane="n4ton0_1" arrivalPos="39.60" arrivalSpeed="15.01" duration="88.00" routeLength="93.45" waitingTime="71.00" waitingCount="1" stopTime="0.00" timeLoss="80.71" rerouteNo="0" devices="tripinfo_18" vType="DEFAULT_VEHTYPE" speedFactor="0.99" vaporized=""/>
    <tripinfo id="20" depart="22.00" departLane="n1ton4_0" departPos="5.10" departSpeed="0.00" departDelay="2.00" arrival="115.00" arrivalLane="n4ton3_1" arrivalPos="39.60" arrivalSpeed="0.30" duration="93.00" routeLength="94.90" waitingTime="0.00" waitingCount="0" stopTime="0.00" timeLoss="86.24" rerouteNo="0" devices="tripinfo_20" vType="DEFAULT_VEHTYPE" speedFactor="0.88" vaporized=""/>
    <tripinfo id="68" depart="107.00" departLane="n1ton4_0" departPos="5.10" departSpeed="0.00" departDelay="39.00" arrival="119.00" arrivalLane="n4ton0_1" arrivalPos="39.60" arrivalSpeed="15.43" duration="12.00" routeLength="93.45" waitingTime="0.00" waitingCount="0" stopTime="0.00" timeLoss="4.61" rerouteNo="0" devices="tripinfo_68" vType="DEFAULT_VEHTYPE" speedFactor="1.02" vaporized=""/>
    <tripinfo id="79" depart="108.00" departLane="n1ton4_0" departPos="5.10" departSpeed="0.00" departDelay="29.00" arrival="122.00" arrivalLane="n4ton0_1" arrivalPos="39.60" arrivalSpeed="14.27" duration="14.00" routeLength="93.45" waitingTime="0.00" waitingCount="0" stopTime="0.00" timeLoss="7.13" rerouteNo="0" devices="tripinfo_79" vType="DEFAULT_VEHTYPE" speedFactor="0.97" vaporized=""/>
    <tripinfo id="16" depart="16.00" departLane="n3ton4_0" departPos="5.10" departSpeed="0.00" departDelay="0.00" arrival="130.00" arrivalLane="n4ton0_0" arrivalPos="39.60" arrivalSpeed="14.07" duration="114.00" routeLength="83.13" waitingTime="98.00" waitingCount="1" stopTime="0.00" timeLoss="108.08" rerouteNo="0" devices="tripinfo_16" vType="DEFAULT_VEHTYPE" speedFactor="1.05" vaporized=""/>
    <tripinfo id="19" depart="19.00" departLane="n3ton4_0" departPos="5.10" departSpeed="0.00" departDelay="0.00" arrival="132.00" arrivalLane="n4ton0_0" arrivalPos="39.60" arrivalSpeed="13.58" duration="113.00" routeLength="83.13" waitingTime="97.00" waitingCount="1" stopTime="0.00" timeLoss="106.59" rerouteNo="0" devices="tripinfo_19" vType="DEFAULT_VEHTYPE" speedFactor="0.93" vaporized=""/>
    <tripinfo id="22" depart="22.00" departLane="n3ton4_0" departPos="5.10" departSpeed="0.00" departDelay="0.00" arrival="135.00" arrivalLane="n4ton1_0" arrivalPos="39.60" arrivalSpeed="14.24" duration="113.00" routeLength="94.90" waitingTime="97.00" waitingCount="1" stopTime="0.00" timeLoss="106.03" rerouteNo="0" devices="tripinfo_22" vType="DEFAULT_VEHTYPE" speedFactor="0.94" vaporized=""/>
    <tripinfo id="49" depart="49.00" departLane="n3ton4_0" departPos="5.10" departSpeed="0.00" departDelay="0.00" arrival="137.00" arrivalLane="n4ton0_0" arrivalPos="39.60" arrivalSpeed="14.59" duration="88.00" routeLength="83.13" waitingTime="73.00" waitingCount="1" stopTime="0.00" timeLoss="81.75" rerouteNo="0" devices="tripinfo_49" vType="DEFAULT_VEHTYPE" speedFactor="0.97" vaporized=""/>
    <tripinfo id="53" depart="53.00" departLane="n3ton4_0" departPos="5.10" departSpeed="0.00" departDelay="0.00" arrival="140.00" arrivalLane="n4ton0_0" arrivalPos="39.60" arrivalSpeed="15.11" duration="87.00" routeLength="83.13" waitingTime="71.00" waitingCount="1" stopTime="0.00" timeLoss="80.22" rerouteNo="0" devices="tripinfo_53" vType="DEFAULT_VEHTYPE" speedFactor="1.03" vaporized=""/>
    <tripinfo id="61" depart="129.00" departLane="n3ton4_0" departPos="5.10" departSpeed="0.00" departDelay="68.00" arrival="143.00" arrivalLane="n4ton0_0" arrivalPos="39.60" arrivalSpeed="13.22" duration="14.00" routeLength="83.13" waitingTime="0.00" waitingCount="0" stopTime="0.00" timeLoss="7.82" rerouteNo="0" devices="tripinfo_61" vType="DEFAULT_VEHTYPE" speedFactor="1.09" vaporized=""/>
    <tripinfo id="62" depart="133.00" departLane="n3ton4_0" departPos="5.10" departSpeed="0.00" departDelay="71.00" arrival="145.00" arrivalLane="n4ton0_0" arrivalPos="39.60" arrivalSpeed="13.89" duration="12.00" routeLength="83.13" waitingTime="0.00" waitingCount="0" stopTime="0.00" timeLoss="5.84" rerouteNo="0" devices="tripinfo_62" vType="DEFAULT_VEHTYPE" speedFactor="1.00" vaporized=""/>
    <tripinfo id="69" depart="136.00" departLane="n3ton4_0" departPos="5.10" departSpeed="0.00" departDelay="67.00" arrival="147.00" arrivalLane="n4ton1_0" arrivalPos="39.60" arrivalSpeed="17.29" duration="11.00" routeLength="94.90" waitingTime="0.00" waitingCount="0" stopTime="0.00" timeLoss="5.04" rerouteNo="0" devices="tripinfo_69" vType="DEFAULT_VEHTYPE" speedFactor="1.10" vaporized=""/>
    <tripinfo id="73" depart="139.00" departLane="n3ton4_0" departPos="5.10" departSpeed="0.00" departDelay="66.00" arrival="149.00" arrivalLane="n4ton1_0" arrivalPos="39.60" arrivalSpeed="13.38" duration="10.00" routeLength="94.90" waitingTime="0.00" waitingCount="0" stopTime="0.00" timeLoss="3.28" rerouteNo="0" devices="tripinfo_73" vType="DEFAULT_VEHTYPE" speedFactor="0.90" vaporized=""/>
    <tripinfo id="81" depart="145.00" departLane="n3ton4_0" departPos="5.10" departSpeed="0.00" departDelay="64.00" arrival="156.00" arrivalLane="n4ton0_0" arrivalPos="39.60" arrivalSpeed="13.29" duration="11.00" routeLength="83.13" waitingTime="0.00" waitingCount="0" stopTime="0.00" timeLoss="5.45" rerouteNo="0" devices="tripinfo_81" vType="DEFAULT_VEHTYPE" speedFactor="1.12" vaporized=""/>
    <tripinfo id="82" depart="148.00" departLane="n3ton4_0" departPos="5.10" departSpeed="0.00" departDelay="66.00" arrival="160.00" arrivalLane="n4ton0_0" arrivalPos="39.60" arrivalSpeed="13.66" duration="12.00" routeLength="83.13" waitingTime="0.00" waitingCount="0" stopTime="0.00" timeLoss="5.79" rerouteNo="0" devices="tripinfo_82" vType="DEFAULT_VEHTYPE" speedFactor="1.02" vaporized=""/>
    <tripinfo id="87" depart="152.00" departLane="n3ton4_0" departPos="5.10" departSpeed="0.00" departDelay="65.00" arrival="164.00" arrivalLane="n4ton0_0" arrivalPos="39.60" arrivalSpeed="13.45" duration="12.00" routeLength="83.13" waitingTime="0.00" waitingCount="0" stopTime="0.00" timeLoss="5.47" rerouteNo="0" devices="tripinfo_87" vType="DEFAULT_VEHTYPE" speedFactor="0.91" vaporized=""/>
    <tripinfo id="96" depart="155.00" departLane="n3ton4_0" departPos="5.10" departSpeed="0.00" departDelay="59.00" arrival="167.00" arrivalLane="n4ton0_0" arrivalPos="39.60" arrivalSpeed="13.42" duration="12.00" routeLength="83.13" waitingTime="0.00" waitingCount="0" stopTime="0.00" timeLoss="5.94" rerouteNo="0" devices="tripinfo_96" vType="DEFAULT_VEHTYPE" speedFactor="0.96" vaporized=""/>
    <tripinfo id="99" depart="158.00" departLane="n3ton4_0" departPos="5.10" departSpeed="0.00" departDelay="59.00" arrival="170.00" arrivalLane="n4ton1_0" arrivalPos="39.60" arrivalSpeed="15.84" duration="12.00" routeLength="94.90" waitingTime="0.00" waitingCount="0" stopTime="0.00" timeLoss="5.51" rerouteNo="0" devices="tripinfo_99" vType="DEFAULT_VEHTYPE" speedFactor="1.03" vaporized=""/>
    <tripinfo id="0" depart="0.00" departLane="n2ton4_0" departPos="5.10" departSpeed="0.00" departDelay="0.00" arrival="172.00" arrivalLane="n4ton3_0" arrivalPos="39.60" arrivalSpeed="0.30" duration="172.00" routeLength="83.13" waitingTime="45.00" waitingCount="1" stopTime="0.00" timeLoss="166.52" rerouteNo="0" devices="tripinfo_0" vType="DEFAULT_VEHTYPE" speedFactor="1.06" vaporized=""/>
    <tripinfo id="66" depart="93.00" departLane="n2ton4_0" departPos="5.10" departSpeed="0.00" departDelay="27.00" arrival="174.00" arrivalLane="n4ton1_1" arrivalPos="39.60" arrivalSpeed="13.62" duration="81.00" routeLength="93.45" waitingTime="66.00" waitingCount="1" stopTime="0.00" timeLoss="72.26" rerouteNo="0" devices="tripinfo_66" vType="DEFAULT_VEHTYPE" speedFactor="0.85" vaporized=""/>
    <tripinfo id="105" depart="105.00" departLane="n2ton4_0" departPos="5.10" departSpeed="0.00" departDelay="0.00" arrival="175.00" arrivalLane="n4ton1_1" arrivalPos="39.60" arrivalSpeed="15.20" duration="70.00" routeLength="93.45" waitingTime="55.00" waitingCount="1" stopTime="0.00" timeLoss="63.50" rerouteNo="0" devices="tripinfo_105" vType="DEFAULT_VEHTYPE" speedFactor="1.03" vaporized=""/>
    <tripinfo id="110" depart="110.00" departLane="n2ton4_0" departPos="5.10" departSpeed="0.00" departDelay="0.00" arrival="177.00" arrivalLane="n4ton1_1" arrivalPos="39.60" arrivalSpeed="14.40" duration="67.00" routeLength="93.45" waitingTime="50.00" waitingCount="1" stopTime="0.00" timeLoss="60.18" rerouteNo="0" devices="tripinfo_110" vType="DEFAULT_VEHTYPE" speedFactor="0.97" vaporized=""/>
    <tripinfo id="64" depart="89.00" departLane="n2ton4_0" departPos="5.10" departSpeed="0.00" departDelay="25.00" arrival="184.00" arrivalLane="n4ton0_0" arrivalPos="39.60" arrivalSpeed="13.01" duration="95.00" routeLength="94.90" waitingTime="79.00" waitingCount="1" stopTime="0.00" timeLoss="88.10" rerouteNo="0" devices="tripinfo_64" vType="DEFAULT_VEHTYPE" speedFactor="0.88" vaporized=""/>
    <tripinfo id="72" depart="94.00" departLane="n2ton4_0" departPos="5.10" departSpeed="0.00" departDelay="22.00" arrival="186.00" arrivalLane="n4ton0_0" arrivalPos="39.60" arrivalSpeed="15.74" duration="92.00" routeLength="94.90" waitingTime="75.00" waitingCount="1" stopTime="0.00" timeLoss="85.39" rerouteNo="0" devices="tripinfo_72" vType="DEFAULT_VEHTYPE" speedFactor="1.00" vaporized=""/>
    <tripinfo id="85" depart="85.00" departLane="n0ton4_0" departPos="5.10" departSpeed="0.00" departDelay="0.00" arrival="186.00" arrivalLane="n4ton2_0" arrivalPos="39.60" arrivalSpeed="13.86" duration="101.00" routeLength="94.90" waitingTime="84.00" waitingCount="1" stopTime="0.00" timeLoss="94.52" rerouteNo="0" devices="tripinfo_85" vType="DEFAULT_VEHTYPE" speedFactor="0.94" vaporized=""/>
    <tripinfo id="92" depart="92.00" departLane="n0ton4_0" departPos="5.10" departSpeed="0.00" departDelay="0.00" arrival="188.00" arrivalLane="n4ton2_0" arrivalPos="39.60" arrivalSpeed="15.13" duration="96.00" routeLength="94.90" waitingTime="81.00" waitingCount="1" stopTime="0.00" timeLoss="89.57" rerouteNo="0" devices="tripinfo_92" vType="DEFAULT_VEHTYPE" speedFactor="1.02" vaporized=""/>
    <tripinfo id="95" depart="95.00" departLane="n0ton4_0" departPos="5.10" departSpeed="0.00" departDelay="0.00" arrival="190.00" arrivalLane="n4ton1_0" arrivalPos="39.60" arrivalSpeed="13.12" duration="95.00" routeLength="83.13" waitingTime="80.00" waitingCount="1" stopTime="0.00" timeLoss="88.78" rerouteNo="0" devices="tripinfo_95" vType="DEFAULT_VEHTYPE" speedFactor="1.06" vaporized=""/>
    <tripinfo id="98" depart="98.00" departLane="n0ton4_0" departPos="5.10" departSpeed="0.00" departDelay="0.00" arrival="192.00" arrivalLane="n4ton2_0" arrivalPos="39.60" arrivalSpeed="15.62" duration="94.00" routeLength="94.90" waitingTime="78.00" waitingCount="1" stopTime="0.00" timeLoss="87.58" rerouteNo="0" devices="tripinfo_98" vType="DEFAULT_VEHTYPE" speedFactor="0.98" vaporized=""/>
    <tripinfo id="106" depart="106.00" departLane="n0ton4_0" departPos="5.10" departSpeed="0.00" departDelay="0.00" arrival="194.00" arrivalLane="n4ton2_0" arrivalPos="39.60" arrivalSpeed="15.95" duration="88.00" routeLength="94.90" waitingTime="73.00" waitingCount="1" stopTime="0.00" timeLoss="81.24" rerouteNo="0" devices="tripinfo_106" vType="DEFAULT_VEHTYPE" speedFactor="1.00" vaporized=""/>
    <tripinfo id="120" depart="185.00" departLane="n0ton4_0" departPos="5.10" departSpeed="0.00" departDelay="65.00" arrival="196.00" arrivalLane="n4ton2_0" arrivalPos="39.60" arrivalSpeed="15.34" duration="11.00" routeLength="94.90" waitingTime="0.00" waitingCount="0" stopTime="0.00" timeLoss="4.26" rerouteNo="0" devices="tripinfo_120" vType="DEFAULT_VEHTYPE" speedFactor="1.01" vaporized=""/>
    <tripinfo id="133" depart="189.00" departLane="n0ton4_0" departPos="5.10" departSpeed="0.00" departDelay="56.00" arrival="200.00" arrivalLane="n4ton1_0" arrivalPos="39.60" arrivalSpeed="14.21" duration="11.00" routeLength="83.13" waitingTime="0.00" waitingCount="0" stopTime="0.00" timeLoss="5.36" rerouteNo="0" devices="tripinfo_133" vType="DEFAULT_VEHTYPE" speedFactor="1.10" vaporized=""/>
    <tripinfo id="29" depart="30.00" departLane="n2ton4_0" departPos="5.10" departSpeed="0.00" departDelay="1.00" arrival="201.00" arrivalLane="n4ton3_1" arrivalPos="39.60" arrivalSpeed="0.30" duration="171.00" routeLength="83.13" waitingTime="25.00" waitingCount="2" stopTime="0.00" timeLoss="164.84" rerouteNo="0" devices="tripinfo_29" vType="DEFAULT_VEHTYPE" speedFactor="1.01" vaporized=""/>
    <tripinfo id="163" depart="193.00" departLane="n0ton4_0" departPos="5.10" departSpeed="0.00" departDelay="30.00" arrival="203.00" arrivalLane="n4ton2_0" arrivalPos="39.60" arrivalSpeed="16.44" duration="10.00" routeLength="94.90" waitingTime="0.00" waitingCount="0" stopTime="0.00" timeLoss="3.86" rerouteNo="0" devices="tripinfo_163" vType="DEFAULT_VEHTYPE" speedFactor="1.10" vaporized=""/>
    <tripinfo id="56" depart="86.00" departLane="n2ton4_0" departPos="5.10" departSpeed="0.00" departDelay="30.00" arrival="204.00" arrivalLane="n4ton3_1" arrivalPos="39.60" arrivalSpeed="6.26" duration="118.00" routeLength="83.13" waitingTime="0.00" waitingCount="0" stopTime="0.00" timeLoss="111.59" rerouteNo="0" devices="tripinfo_56" vType="DEFAULT_VEHTYPE" speedFactor="1.04" vaporized=""/>
    <tripinfo id="46" depart="52.00" departLane="n0ton4_0" departPos="5.10" departSpeed="0.00" departDelay="6.00" arrival="206.00" arrivalLane="n4ton3_1" arrivalPos="39.60" arrivalSpeed="7.10" duration="154.00" routeLength="93.45" waitingTime="105.00" waitingCount="1" stopTime="0.00" timeLoss="147.21" rerouteNo="0" devices="tripinfo_46" vType="DEFAULT_VEHTYPE" speedFactor="0.99" vaporized=""/>
    <tripinfo id="50" depart="81.00" departLane="n2ton4_0" departPos="5.10" departSpeed="0.00" departDelay="31.00" arrival="207.00" arrivalLane="n4ton3_0" arrivalPos="39.60" arrivalSpeed="0.30" duration="126.00" routeLength="83.13" waitingTime="0.00" waitingCount="0" stopTime="0.00" timeLoss="121.06" rerouteNo="0" devices="tripinfo_50" vType="DEFAULT_VEHTYPE" speedFactor="1.18" vaporized=""/>
    <tripinfo id="138" depart="183.00" departLane="n2ton4_0" departPos="5.10" departSpeed="0.00" departDelay="45.00" arrival="207.00" arrivalLane="n4ton0_0" arrivalPos="39.60" arrivalSpeed="14.76" duration="24.00" routeLength="94.90" waitingTime="0.00" waitingCount="0" stopTime="0.00" timeLoss="17.74" rerouteNo="0" devices="tripinfo_138" vType="DEFAULT_VEHTYPE" speedFactor="0.97" vaporized=""/>
    <tripinfo id="70" depart="74.00" departLane="n0ton4_0" departPos="5.10" departSpeed="0.00" departDelay="4.00" arrival="209.00" arrivalLane="n4ton3_1" arrivalPos="39.60" arrivalSpeed="7.05" duration="135.00" routeLength="93.45" waitingTime="86.00" waitingCount="1" stopTime="0.00" timeLoss="128.20" rerouteNo="0" devices="tripinfo_70" vType="DEFAULT_VEHTYPE" speedFactor="1.00" vaporized=""/>
    <tripinfo id="159" depart="189.00" departLane="n2ton4_0" departPos="5.10" departSpeed="0.00" departDelay="30.00" arrival="218.00" arrivalLane="n4ton0_0" arrivalPos="39.60" arrivalSpeed="14.45" duration="29.00" routeLength="94.90" waitingTime="2.00" waitingCount="1" stopTime="0.00" timeLoss="23.00" rerouteNo="0" devices="tripinfo_159" vType="DEFAULT_VEHTYPE" speedFactor="1.00" vaporized=""/>
    <tripinfo id="161" depart="192.00" departLane="n2ton4_0" departPos="5.10" departSpeed="0.00" departDelay="31.00" arrival="221.00" arrivalLane="n4ton0_0" arrivalPos="39.60" arrivalSpeed="16.69" duration="29.00" routeLength="94.90" waitingTime="2.00" waitingCount="1" stopTime="0.00" timeLoss="22.68" rerouteNo="0" devices="tripinfo_161" vType="DEFAULT_VEHTYPE" speedFactor="1.07" vaporized=""/>
    <tripinfo id="179" depart="206.00" departLane="n2ton4_0" departPos="5.10" departSpeed="0.00" departDelay="27.00" arrival="223.00" arrivalLane="n4ton0_0" arrivalPos="39.60" arrivalSpeed="15.38" duration="17.00" routeLength="94.90" waitingTime="0.00" waitingCount="0" stopTime="0.00" timeLoss="10.65" rerouteNo="0" devices="tripinfo_179" vType="DEFAULT_VEHTYPE" speedFactor="1.04" vaporized=""/>
    <tripinfo id="78" depart="142.00" departLane="n3ton4_0" departPos="5.10" departSpeed="0.00" departDelay="64.00" arrival="227.00" arrivalLane="n4ton2_1" arrivalPos="39.60" arrivalSpeed="14.53" duration="85.00" routeLength="93.45" waitingTime="68.00" waitingCount="1" stopTime="0.00" timeLoss="78.36" rerouteNo="0" devices="tripinfo_78" vType="DEFAULT_VEHTYPE" speedFactor="1.02" vaporized=""/>