<?xml version="1.0" encoding="UTF-8"?>

<!-- generated on Tue Apr 28 23:45:35 2020 by Eclipse SUMO GUI Version 1.5.0
<configuration xmlns:xsi="http://www.w3.org/2001/XMLSchema-instance" xsi:noNamespaceSchemaLocation="http://sumo.dlr.de/xsd/sumoConfiguration.xsd">

    <input>
        <net-file value="my_net.net.xml"/>
        <route-files value="my_route.rou.xml"/>
        <additional-files value="demo.add.xml"/>
    </input>

    <output>
        <tripinfo-output value="tripinfo.xml"/>
    </output>

    <time>
        <begin value="0"/>
        <end value="2000"/>
    </time>

    <traci_server>
        <remote-port value="59757"/>
    </traci_server>

</configuration>
-->

<tripinfos xmlns:xsi="http://www.w3.org/2001/XMLSchema-instance" xsi:noNamespaceSchemaLocation="http://sumo.dlr.de/xsd/tripinfo_file.xsd">
    <tripinfo id="3" depart="3.00" departLane="n3ton4_0" departPos="5.10" departSpeed="0.00" departDelay="0.00" arrival="13.00" arrivalLane="n4ton1_0" arrivalPos="39.60" arrivalSpeed="15.02" duration="10.00" routeLength="94.90" waitingTime="0.00" waitingCount="0" stopTime="0.00" timeLoss="3.86" rerouteNo="0" devices="tripinfo_3" vType="DEFAULT_VEHTYPE" speedFactor="1.01" vaporized=""/>
    <tripinfo id="2" depart="2.00" departLane="n3ton4_0" departPos="5.10" departSpeed="0.00" departDelay="0.00" arrival="14.00" arrivalLane="n4ton2_1" arrivalPos="39.60" arrivalSpeed="13.40" duration="12.00" routeLength="93.45" waitingTime="0.00" waitingCount="0" stopTime="0.00" timeLoss="4.49" rerouteNo="0" devices="tripinfo_2" vType="DEFAULT_VEHTYPE" speedFactor="0.94" vaporized=""/>
    <tripinfo id="4" depart="6.00" departLane="n3ton4_0" departPos="5.10" departSpeed="0.00" departDelay="2.00" arrival="17.00" arrivalLane="n4ton0_0" arrivalPos="39.60" arrivalSpeed="15.51" duration="11.00" routeLength="83.13" waitingTime="0.00" waitingCount="0" stopTime="0.00" timeLoss="5.13" rerouteNo="0" devices="tripinfo_4" vType="DEFAULT_VEHTYPE" speedFactor="1.08" vaporized=""/>
    <tripinfo id="7" depart="9.00" departLane="n3ton4_0" departPos="5.10" departSpeed="0.00" departDelay="2.00" arrival="21.00" arrivalLane="n4ton2_1" arrivalPos="39.60" arrivalSpeed="12.28" duration="12.00" routeLength="93.45" waitingTime="0.00" waitingCount="0" stopTime="0.00" timeLoss="3.62" rerouteNo="0" devices="tripinfo_7" vType="DEFAULT_VEHTYPE" speedFactor="0.83" vaporized=""/>
    <tripinfo id="14" depart="14.00" departLane="n3ton4_0" departPos="5.10" departSpeed="0.00" departDelay="0.00" arrival="26.00" arrivalLane="n4ton2_1" arrivalPos="39.60" arrivalSpeed="12.96" duration="12.00" routeLength="93.45" waitingTime="0.00" waitingCount="0" stopTime="0.00" timeLoss="3.65" rerouteNo="0" devices="tripinfo_14" vType="DEFAULT_VEHTYPE" speedFactor="0.86" vaporized=""/>
    <tripinfo id="20" depart="20.00" departLane="n3ton4_0" departPos="5.10" departSpeed="0.00" departDelay="0.00" arrival="30.00" arrivalLane="n4ton1_0" arrivalPos="39.60" arrivalSpeed="15.38" duration="10.00" routeLength="94.90" waitingTime="0.00" waitingCount="0" stopTime="0.00" timeLoss="3.75" rerouteNo="0" devices="tripinfo_20" vType="DEFAULT_VEHTYPE" speedFactor="0.99" vaporized=""/>
    <tripinfo id="22" depart="23.00" departLane="n3ton4_0" departPos="5.10" departSpeed="0.00" departDelay="1.00" arrival="35.00" arrivalLane="n4ton2_1" arrivalPos="39.60" arrivalSpeed="13.64" duration="12.00" routeLength="93.45" waitingTime="0.00" waitingCount="0" stopTime="0.00" timeLoss="4.09" rerouteNo="0" devices="tripinfo_22" vType="DEFAULT_VEHTYPE" speedFactor="0.88" vaporized=""/>
    <tripinfo id="23" depart="24.00" departLane="n3ton4_0" departPos="5.10" departSpeed="0.00" departDelay="1.00" arrival="38.00" arrivalLane="n4ton2_1" arrivalPos="39.60" arrivalSpeed="14.35" duration="14.00" routeLength="93.45" waitingTime="0.00" waitingCount="0" stopTime="0.00" timeLoss="6.84" rerouteNo="0" devices="tripinfo_23" vType="DEFAULT_VEHTYPE" speedFactor="0.94" vaporized=""/>
    <tripinfo id="28" depart="28.00" departLane="n3ton4_0" departPos="5.10" departSpeed="0.00" departDelay="0.00" arrival="38.00" arrivalLane="n4ton1_0" arrivalPos="39.60" arrivalSpeed="16.12" duration="10.00" routeLength="94.90" waitingTime="0.00" waitingCount="0" stopTime="0.00" timeLoss="3.87" rerouteNo="0" devices="tripinfo_28" vType="DEFAULT_VEHTYPE" speedFactor="1.01" vaporized=""/>
    <tripinfo id="29" depart="31.00" departLane="n3ton4_0" departPos="5.10" departSpeed="0.00" departDelay="2.00" arrival="43.00" arrivalLane="n4ton2_1" arrivalPos="39.60" arrivalSpeed="13.19" duration="12.00" routeLength="93.45" waitingTime="0.00" waitingCount="0" stopTime="0.00" timeLoss="4.62" rerouteNo="0" devices="tripinfo_29" vType="DEFAULT_VEHTYPE" speedFactor="0.98" vaporized=""/>
    <tripinfo id="18" depart="18.00" departLane="n1ton4_0" departPos="5.10" departSpeed="0.00" departDelay="0.00" arrival="52.00" arrivalLane="n4ton2_0" arrivalPos="39.60" arrivalSpeed="15.25" duration="34.00" routeLength="83.13" waitingTime="19.00" waitingCount="1" stopTime="0.00" timeLoss="27.44" rerouteNo="0" devices="tripinfo_18" vType="DEFAULT_VEHTYPE" speedFactor="1.05" vaporized=""/>
    <tripinfo id="44" depart="49.00" departLane="n1ton4_0" departPos="5.10" departSpeed="0.00" departDelay="5.00" arrival="60.00" arrivalLane="n4ton2_0" arrivalPos="39.60" arrivalSpeed="14.71" duration="11.00" routeLength="83.13" waitingTime="0.00" waitingCount="0" stopTime="0.00" timeLoss="5.29" rerouteNo="0" devices="tripinfo_44" vType="DEFAULT_VEHTYPE" speedFactor="1.15" vaporized=""/>
    <tripinfo id="5" depart="5.00" departLane="n2ton4_0" departPos="5.10" departSpeed="0.00" departDelay="0.00" arrival="92.00" arrivalLane="n4ton1_1" arrivalPos="39.60" arrivalSpeed="14.79" duration="87.00" routeLength="93.45" waitingTime="72.00" waitingCount="1" stopTime="0.00" timeLoss="80.16" rerouteNo="0" devices="tripinfo_5" vType="DEFAULT_VEHTYPE" speedFactor="1.03" vaporized=""/>
    <tripinfo id="19" depart="19.00" departLane="n2ton4_0" departPos="5.10" departSpeed="0.00" departDelay="0.00" arrival="94.00" arrivalLane="n4ton1_1" arrivalPos="39.60" arrivalSpeed="15.22" duration="75.00" routeLength="93.45" waitingTime="58.00" waitingCount="1" stopTime="0.00" timeLoss="68.54" rerouteNo="0" devices="tripinfo_19" vType="DEFAULT_VEHTYPE" speedFactor="1.12" vaporized=""/>
    <tripinfo id="25" depart="25.00" departLane="n2ton4_0" departPos="5.10" departSpeed="0.00" departDelay="0.00" arrival="96.00" arrivalLane="n4ton1_1" arrivalPos="39.60" arrivalSpeed="17.43" duration="71.00" routeLength="93.45" waitingTime="55.00" waitingCount="1" stopTime="0.00" timeLoss="64.54" rerouteNo="0" devices="tripinfo_25" vType="DEFAULT_VEHTYPE" speedFactor="1.16" vaporized=""/>
    <tripinfo id="1" depart="1.00" departLane="n0ton4_0" departPos="5.10" departSpeed="0.00" departDelay="0.00" arrival="104.00" arrivalLane="n4ton1_0" arrivalPos="39.60" arrivalSpeed="13.30" duration="103.00" routeLength="83.13" waitingTime="87.00" waitingCount="1" stopTime="0.00" timeLoss="97.65" rerouteNo="0" devices="tripinfo_1" vType="DEFAULT_VEHTYPE" speedFactor="1.06" vaporized=""/>
    <tripinfo id="9" depart="9.00" departLane="n0ton4_0" departPos="5.10" departSpeed="0.00" departDelay="0.00" arrival="107.00" arrivalLane="n4ton1_0" arrivalPos="39.60" arrivalSpeed="13.89" duration="98.00" routeLength="83.13" waitingTime="81.00" waitingCount="1" stopTime="0.00" timeLoss="91.30" rerouteNo="0" devices="tripinfo_9" vType="DEFAULT_VEHTYPE" speedFactor="0.89" vaporized=""/>
    <tripinfo id="30" depart="30.00" departLane="n0ton4_0" departPos="5.10" departSpeed="0.00" departDelay="0.00" arrival="110.00" arrivalLane="n4ton2_0" arrivalPos="39.60" arrivalSpeed="13.88" duration="80.00" routeLength="94.90" waitingTime="64.00" waitingCount="1" stopTime="0.00" timeLoss="72.48" rerouteNo="0" devices="tripinfo_30" vType="DEFAULT_VEHTYPE" speedFactor="0.89" vaporized=""/>
    <tripinfo id="8" depart="8.00" departLane="n1ton4_0" departPos="5.10" departSpeed="0.00" departDelay="0.00" arrival="112.00" arrivalLane="n4ton3_0" arrivalPos="39.60" arrivalSpeed="0.30" duration="104.00" routeLength="94.90" waitingTime="25.00" waitingCount="1" stopTime="0.00" timeLoss="98.33" rerouteNo="0" devices="tripinfo_8" vType="DEFAULT_VEHTYPE" speedFactor="1.05" vaporized=""/>
    <tripinfo id="36" depart="37.00" departLane="n0ton4_0" departPos="5.10" departSpeed="0.00" departDelay="1.00" arrival="112.00" arrivalLane="n4ton1_0" arrivalPos="39.60" arrivalSpeed="12.94" duration="75.00" routeLength="83.13" waitingTime="59.00" waitingCount="1" stopTime="0.00" timeLoss="68.53" rerouteNo="0" devices="tripinfo_36" vType="DEFAULT_VEHTYPE" speedFactor="0.92" vaporized=""/>
    <tripinfo id="60" depart="95.00" departLane="n0ton4_0" departPos="5.10" departSpeed="0.00" departDelay="35.00" arrival="115.00" arrivalLane="n4ton1_0" arrivalPos="39.60" arrivalSpeed="14.04" duration="20.00" routeLength="83.13" waitingTime="4.00" waitingCount="1" stopTime="0.00" timeLoss="13.20" rerouteNo="0" devices="tripinfo_60" vType="DEFAULT_VEHTYPE" speedFactor="1.00" vaporized=""/>
    <tripinfo id="78" depart="105.00" departLane="n0ton4_0" departPos="5.10" departSpeed="0.00" departDelay="27.00" arrival="117.00" arrivalLane="n4ton2_0" arrivalPos="39.60" arrivalSpeed="13.52" duration="12.00" routeLength="94.90" waitingTime="0.00" waitingCount="0" stopTime="0.00" timeLoss="4.55" rerouteNo="0" devices="tripinfo_78" vType="DEFAULT_VEHTYPE" speedFactor="0.90" vaporized=""/>
    <tripinfo id="26" depart="27.00" departLane="n1ton4_0" departPos="5.10" departSpeed="0.00" departDelay="1.00" arrival="143.00" arrivalLane="n4ton3_0" arrivalPos="39.60" arrivalSpeed="0.30" duration="116.00" routeLength="94.90" waitingTime="12.00" waitingCount="1" stopTime="0.00" timeLoss="110.16" rerouteNo="0" devices="tripinfo_26" vType="DEFAULT_VEHTYPE" speedFactor="1.02" vaporized=""/>
    <tripinfo id="24" depart="24.00" departLane="n1ton4_0" departPos="5.10" departSpeed="0.00" departDelay="0.00" arrival="149.00" arrivalLane="n4ton3_1" arrivalPos="39.60" arrivalSpeed="0.30" duration="125.00" routeLength="94.90" waitingTime="13.00" waitingCount="1" stopTime="0.00" timeLoss="118.66" rerouteNo="0" devices="tripinfo_24" vType="DEFAULT_VEHTYPE" speedFactor="0.94" vaporized=""/>
    <tripinfo id="58" depart="58.00" departLane="n1ton4_0" departPos="5.10" departSpeed="0.00" departDelay="0.00" arrival="152.00" arrivalLane="n4ton3_1" arrivalPos="39.60" arrivalSpeed="5.81" duration="94.00" routeLength="94.90" waitingTime="0.00" waitingCount="0" stopTime="0.00" timeLoss="88.08" rerouteNo="0" devices="tripinfo_58" vType="DEFAULT_VEHTYPE" speedFactor="1.04" vaporized=""/>
    <tripinfo id="32" depart="33.00" departLane="n0ton4_0" departPos="5.10" departSpeed="0.00" departDelay="1.00" arrival="154.00" arrivalLane="n4ton3_1" arrivalPos="39.60" arrivalSpeed="6.56" duration="121.00" routeLength="93.45" waitingTime="43.00" waitingCount="1" stopTime="0.00" timeLoss="112.72" rerouteNo="0" devices="tripinfo_32" vType="DEFAULT_VEHTYPE" speedFactor="0.83" vaporized=""/>
    <tripinfo id="40" depart="40.00" departLane="n0ton4_0" departPos="5.10" departSpeed="0.00" departDelay="0.00" arrival="156.00" arrivalLane="n4ton3_1" arrivalPos="39.60" arrivalSpeed="7.90" duration="116.00" routeLength="93.45" waitingTime="40.00" waitingCount="1" stopTime="0.00" timeLoss="109.82" rerouteNo="0" devices="tripinfo_40" vType="DEFAULT_VEHTYPE" speedFactor="1.13" vaporized=""/>
    <tripinfo id="49" depart="49.00" departLane="n0ton4_0" departPos="5.10" departSpeed="0.00" departDelay="0.00" arrival="158.00" arrivalLane="n4ton3_1" arrivalPos="39.60" arrivalSpeed="11.82" duration="109.00" routeLength="93.45" waitingTime="36.00" waitingCount="2" stopTime="0.00" timeLoss="101.81" rerouteNo="0" devices="tripinfo_49" vType="DEFAULT_VEHTYPE" speedFactor="0.97" vaporized=""/>
    <tripinfo id="12" depart="12.00" departLane="n2ton4_0" departPos="5.10" departSpeed="0.00" departDelay="0.00" arrival="159.00" arrivalLane="n4ton0_0" arrivalPos="39.60" arrivalSpeed="14.54" duration="147.00" routeLength="94.90" waitingTime="129.00" waitingCount="2" stopTime="0.00" timeLoss="140.37" rerouteNo="0" devices="tripinfo_12" vType="DEFAULT_VEHTYPE" speedFactor="0.94" vaporized=""/>
    <tripinfo id="50" depart="50.00" departLane="n0ton4_0" departPos="5.10" departSpeed="0.00" departDelay="0.00" arrival="160.00" arrivalLane="n4ton3_1" arrivalPos="39.60" arrivalSpeed="11.44" duration="110.00" routeLength="93.45" waitingTime="40.00" waitingCount="3" stopTime="0.00" timeLoss="104.04" rerouteNo="0" devices="tripinfo_50" vType="DEFAULT_VEHTYPE" speedFactor="1.18" vaporized=""/>
    <tripinfo id="16" depart="16.00" departLane="n2ton4_0" departPos="5.10" departSpeed="0.00" departDelay="0.00" arrival="163.00" arrivalLane="n4ton3_1" arrivalPos="39.60" arrivalSpeed="12.39" duration="147.00" routeLength="83.13" waitingTime="125.00" waitingCount="2" stopTime="0.00" timeLoss="141.38" rerouteNo="0" devices="tripinfo_16" vType="DEFAULT_VEHTYPE" speedFactor="1.09" vaporized=""/>
    <tripinfo id="38" depart="38.00" departLane="n1ton4_0" departPos="5.10" departSpeed="0.00" departDelay="0.00" arrival="173.00" arrivalLane="n4ton3_0" arrivalPos="39.60" arrivalSpeed="0.30" duration="135.00" routeLength="94.90" waitingTime="5.00" waitingCount="1" stopTime="0.00" timeLoss="128.74" rerouteNo="0" devices="tripinfo_38" vType="DEFAULT_VEHTYPE" speedFactor="0.95" vaporized=""/>
    <tripinfo id="46" depart="46.00" departLane="n2ton4_0" departPos="5.10" departSpeed="0.00" departDelay="0.00" arrival="176.00" arrivalLane="n4ton0_0" arrivalPos="39.60" arrivalSpeed="16.14" duration="130.00" routeLength="94.90" waitingTime="101.00" waitingCount="3" stopTime="0.00" timeLoss="124.53" rerouteNo="0" devices="tripinfo_46" vType="DEFAULT_VEHTYPE" speedFactor="1.17" vaporized=""/>
    <tripinfo id="17" depart="17.00" departLane="n1ton4_0" departPos="5.10" departSpeed="0.00" departDelay="0.00" arrival="177.00" arrivalLane="n4ton0_1" arrivalPos="39.60" arrivalSpeed="14.45" duration="160.00" routeLength="93.45" waitingTime="144.00" waitingCount="1" stopTime="0.00" timeLoss="153.16" rerouteNo="0" devices="tripinfo_17" vType="DEFAULT_VEHTYPE" speedFactor="1.03" vaporized=""/>
    <tripinfo id="79" depart="79.00" departLane="n1ton4_0" departPos="5.10" departSpeed="0.00" departDelay="0.00" arrival="180.00" arrivalLane="n4ton0_1" arrivalPos="39.60" arrivalSpeed="14.82" duration="101.00" routeLength="93.45" waitingTime="79.00" waitingCount="1" stopTime="0.00" timeLoss="95.00" rerouteNo="0" devices="tripinfo_79" vType="DEFAULT_VEHTYPE" speedFactor="1.14" vaporized=""/>
    <tripinfo id="52" depart="52.00" departLane="n3ton4_0" departPos="5.10" departSpeed="0.00" departDelay="0.00" arrival="181.00" arrivalLane="n4ton2_1" arrivalPos="39.60" arrivalSpeed="15.66" duration="129.00" routeLength="93.45" waitingTime="111.00" waitingCount="2" stopTime="0.00" timeLoss="122.51" rerouteNo="0" devices="tripinfo_52" vType="DEFAULT_VEHTYPE" speedFactor="1.10" vaporized=""/>
    <tripinfo id="45" depart="52.00" departLane="n1ton4_0" departPos="5.10" departSpeed="0.00" departDelay="7.00" arrival="182.00" arrivalLane="n4ton0_1" arrivalPos="39.60" arrivalSpeed="13.90" duration="130.00" routeLength="93.45" waitingTime="113.00" waitingCount="1" stopTime="0.00" timeLoss="123.29" rerouteNo="0" devices="tripinfo_45" vType="DEFAULT_VEHTYPE" speedFactor="1.01" vaporized=""/>
    <tripinfo id="82" depart="82.00" departLane="n1ton4_0" departPos="5.10" departSpeed="0.00" departDelay="0.00" arrival="183.00" arrivalLane="n4ton2_0" arrivalPos="39.60" arrivalSpeed="14.16" duration="101.00" routeLength="83.13" waitingTime="76.00" waitingCount="1" stopTime="0.00" timeLoss="95.31" rerouteNo="0" devices="tripinfo_82" vType="DEFAULT_VEHTYPE" speedFactor="1.08" vaporized=""/>
    <tripinfo id="69" depart="69.00" departLane="n1ton4_0" departPos="5.10" departSpeed="0.00" departDelay="0.00" arrival="184.00" arrivalLane="n4ton0_1" arrivalPos="39.60" arrivalSpeed="13.98" duration="115.00" routeLength="93.45" waitingTime="97.00" waitingCount="1" stopTime="0.00" timeLoss="109.15" rerouteNo="0" devices="tripinfo_69" vType="DEFAULT_VEHTYPE" speedFactor="1.17" vaporized=""/>
    <tripinfo id="90" depart="90.00" departLane="n1ton4_0" departPos="5.10" departSpeed="0.00" departDelay="0.00" arrival="186.00" arrivalLane="n4ton2_0" arrivalPos="39.60" arrivalSpeed="12.98" duration="96.00" routeLength="83.13" waitingTime="76.00" waitingCount="1" stopTime="0.00" timeLoss="88.86" rerouteNo="0" devices="tripinfo_90" vType="DEFAULT_VEHTYPE" speedFactor="0.91" vaporized=""/>
    <tripinfo id="94" depart="94.00" departLane="n1ton4_0" departPos="5.10" departSpeed="0.00" departDelay="0.00" arrival="188.00" arrivalLane="n4ton0_1" arrivalPos="39.60" arrivalSpeed="14.61" duration="94.00" routeLength="93.45" waitingTime="76.00" waitingCount="1" stopTime="0.00" timeLoss="86.68" rerouteNo="0" devices="tripinfo_94" vType="DEFAULT_VEHTYPE" speedFactor="0.97" vaporized=""/>
    <tripinfo id="70" depart="70.00" departLane="n1ton4_0" departPos="5.10" departSpeed="0.00" departDelay="0.00" arrival="190.00" arrivalLane="n4ton0_1" arrivalPos="39.60" arrivalSpeed="14.42" duration="120.00" routeLength="93.45" waitingTime="99.00" waitingCount="3" stopTime="0.00" timeLoss="113.37" rerouteNo="0" devices="tripinfo_70" vType="DEFAULT_VEHTYPE" speedFactor="1.02" vaporized=""/>
    <tripinfo id="98" depart="178.00" departLane="n1ton4_0" departPos="5.10" departSpeed="0.00" departDelay="80.00" arrival="192.00" arrivalLane="n4ton0_1" arrivalPos="39.60" arrivalSpeed="14.22" duration="14.00" routeLength="93.45" waitingTime="0.00" waitingCount="0" stopTime="0.00" timeLoss="7.22" rerouteNo="0" devices="tripinfo_98" vType="DEFAULT_VEHTYPE" speedFactor="0.98" vaporized=""/>
    <tripinfo id="84" depart="85.00" departLane="n1ton4_0" departPos="5.10" departSpeed="0.00" departDelay="1.00" arrival="195.00" arrivalLane="n4ton0_1" arrivalPos="39.60" arrivalSpeed="15.82" duration="110.00" routeLength="93.45" waitingTime="90.00" waitingCount="2" stopTime="0.00" timeLoss="103.47" rerouteNo="0" devices="tripinfo_84" vType="DEFAULT_VEHTYPE" speedFactor="1.12" vaporized=""/>
    <tripinfo id="108" depart="185.00" departLane="n1ton4_0" departPos="5.10" departSpeed="0.00" departDelay="77.00" arrival="197.00" arrivalLane="n4ton2_0" arrivalPos="39.60" arrivalSpeed="13.60" duration="12.00" routeLength="83.13" waitingTime="0.00" waitingCount="0" stopTime="0.00" timeLoss="6.06" rerouteNo="0" devices="tripinfo_108" vType="DEFAULT_VEHTYPE" speedFactor="1.03" vaporized=""/>
    <tripinfo id="121" depart="188.00" departLane="n1ton4_0" departPos="5.10" departSpeed="0.00" departDelay="67.00" arrival="201.00" arrivalLane="n4ton0_1" arrivalPos="39.60" arrivalSpeed="13.55" duration="13.00" routeLength="93.45" waitingTime="0.00" waitingCount="0" stopTime="0.00" timeLoss="5.32" rerouteNo="0" devices="tripinfo_121" vType="DEFAULT_VEHTYPE" speedFactor="0.89" vaporized=""/>
    <tripinfo id="122" depart="189.00" departLane="n1ton4_0" departPos="5.10" departSpeed="0.00" departDelay="67.00" arrival="202.00" arrivalLane="n4ton2_0" arrivalPos="39.60" arrivalSpeed="13.27" duration="13.00" routeLength="83.13" waitingTime="0.00" waitingCount="0" stopTime="0.00" timeLoss="5.04" rerouteNo="0" devices="tripinfo_122" vType="DEFAULT_VEHTYPE" speedFactor="0.83" vaporized=""/>
    <tripinfo id="125" depart="192.00" departLane="n1ton4_0" departPos="5.10" departSpeed="0.00" departDelay="67.00" arrival="204.00" arrivalLane="n4ton0_1" arrivalPos="39.60" arrivalSpeed="15.67" duration="12.00" routeLength="93.45" waitingTime="0.00" waitingCount="0" stopTime="0.00" timeLoss="4.74" rerouteNo="0" devices="tripinfo_125" vType="DEFAULT_VEHTYPE" speedFactor="1.09" vaporized=""/>
    <tripinfo id="143" depart="193.00" departLane="n1ton4_0" departPos="5.10" departSpeed="0.00" departDelay="50.00" arrival="205.00" arrivalLane="n4ton2_0" arrivalPos="39.60" arrivalSpeed="13.84" duration="12.00" routeLength="83.13" waitingTime="0.00" waitingCount="0" stopTime="0.00" timeLoss="5.90" rerouteNo="0" devices="tripinfo_143" vType="DEFAULT_VEHTYPE" speedFactor="1.01" vaporized=""/>
    <tripinfo id="144" depart="196.00" departLane="n1ton4_0" departPos="5.10" departSpeed="0.00" departDelay="52.00" arrival="208.00" arrivalLane="n4ton0_1" arrivalPos="39.60" arrivalSpeed="14.76" duration="12.00" routeLength="93.45" waitingTime="0.00" waitingCount="0" stopTime="0.00" timeLoss="5.25" rerouteNo="0" devices="tripinfo_144" vType="DEFAULT_VEHTYPE" speedFactor="1.03" vaporized=""/>
    <tripinfo id="146" depart="197.00" departLane="n1ton4_0" departPos="5.10" departSpeed="0.00" departDelay="51.00" arrival="209.00" arrivalLane="n4ton2_0" arrivalPos="39.60" arrivalSpeed="15.95" duration="12.00" routeLength="83.13" waitingTime="0.00" waitingCount="0" stopTime="0.00" timeLoss="5.77" rerouteNo="0" devices="tripinfo_146" vType="DEFAULT_VEHTYPE" speedFactor="1.06" vaporized=""/>
    <tripinfo id="147" depart="200.00" departLane="n1ton4_0" departPos="5.10" departSpeed="0.00" departDelay="53.00" arrival="212.00" arrivalLane="n4ton0_1" arrivalPos="39.60" arrivalSpeed="14.09" duration="12.00" routeLength="93.45" waitingTime="0.00" waitingCount="0" stopTime="0.00" timeLoss="4.31" rerouteNo="0" devices="tripinfo_147" vType="DEFAULT_VEHTYPE" speedFactor="0.96" vaporized=""/>
    <tripinfo id="149" depart="201.00" departLane="n1ton4_0" departPos="5.10" departSpeed="0.00" departDelay="52.00" arrival="215.00" arrivalLane="n4ton0_1" arrivalPos="39.60" arrivalSpeed="13.07" duration="14.00" routeLength="93.45" waitingTime="0.00" waitingCount="0" stopTime="0.00" timeLoss="5.98" rerouteNo="0" devices="tripinfo_149" vType="DEFAULT_VEHTYPE" speedFactor="0.87" vaporized=""/>
    <tripinfo id="161" depart="204.00" departLane="n1ton4_0" departPos="5.10" departSpeed="0.00" departDelay="43.00" arrival="217.00" arrivalLane="n4ton0_1" arrivalPos="39.60" arrivalSpeed="14.71" duration="13.00" routeLength="93.45" waitingTime="0.00" waitingCount="0" stopTime="0.00" timeLoss="5.81" rerouteNo="0" devices="tripinfo_161" vType="DEFAULT_VEHTYPE" speedFactor="1.00" vaporized=""/>
    <tripinfo id="53" depart="53.00" departLane="n3ton4_0" departPos="5.10" departSpeed="0.00" departDelay="0.00" arrival="220.00" arrivalLane="n4ton1_0" arrivalPos="39.60" arrivalSpeed="14.23" duration="167.00" routeLength="94.90" waitingTime="151.00" waitingCount="1" stopTime="0.00" timeLoss="159.59" rerouteNo="0" devices="tripinfo_53" vType="DEFAULT_VEHTYPE" speedFactor="0.90" vaporized=""/>
    <tripinfo id="34" depart="34.00" departLane="n0ton4_0" departPos="5.10" departSpeed="0.00" departDelay="0.00" arrival="222.00" arrivalLane="n4ton3_0" arrivalPos="39.60" arrivalSpeed="0.30" duration="188.00" routeLength="93.45" waitingTime="43.00" waitingCount="1" stopTime="0.00" timeLoss="180.16" rerouteNo="0" devices="tripinfo_34" vType="DEFAULT_VEHTYPE" speedFactor="0.87" vaporized=""/>
    <tripinfo id="54" depart="56.00" departLane="n3ton4_0" departPos="5.10" departSpeed="0.00" departDelay="2.00" arrival="222.00" arrivalLane="n4ton1_0" arrivalPos="39.60" arrivalSpeed="16.09" duration="166.00" routeLength="94.90" waitingTime="150.00" waitingCount="1" stopTime="0.00" timeLoss="159.37" rerouteNo="0" devices="tripinfo_54" vType="DEFAULT_VEHTYPE" speedFactor="1.03" vaporized=""/>
    <tripinfo id="56" depart="59.00" departLane="n3ton4_0" departPos="5.10" departSpeed="0.00" departDelay="3.00" arrival="223.00" arrivalLane="n4ton1_0" arrivalPos="39.60" arrivalSpeed="15.71" duration="164.00" routeLength="94.90" waitingTime="149.00" waitingCount="1" stopTime="0.00" timeLoss="158.44" rerouteNo="0" devices="tripinfo_56" vType="DEFAULT_VEHTYPE" speedFactor="1.09" vaporized=""/>
    <tripinfo id="172" depart="212.00" departLane="n1ton4_0" departPos="5.10" departSpeed="0.00" departDelay="40.00" arrival="223.00" arrivalLane="n4ton2_0" arrivalPos="39.60" arrivalSpeed="13.45" duration="11.00" routeLength="83.13" waitingTime="0.00" waitingCount="0" stopTime="0.00" timeLoss="5.36" rerouteNo="0" devices="tripinfo_172" vType="DEFAULT_VEHTYPE" speedFactor="1.15" vaporized=""/>
    <tripinfo id="57" depart="62.00" departLane="n3ton4_0" departPos="5.10" departSpeed="0.00" departDelay="5.00" arrival="226.00" arrivalLane="n4ton0_0" arrivalPos="39.60" arrivalSpeed="14.86" duration="164.00" routeLength="83.13" waitingTime="148.00" waitingCount="1" stopTime="0.00" timeLoss="157.93" rerouteNo="0" devices="tripinfo_57" vType="DEFAULT_VEHTYPE" speedFactor="1.04" vaporized=""/>
    <tripinfo id="62" depart="65.00" departLane="n3ton4_0" departPos="5.10" departSpeed="0.00" departDelay="3.00" arrival="228.00" arrivalLane="n4ton1_0" arrivalPos="39.60" arrivalSpeed="14.24" duration="163.00" routeLength="94.90" waitingTime="147.00" waitingCount="1" stopTime="0.00" timeLoss="155.81" rerouteNo="0" devices="tripinfo_62" vType="DEFAULT_VEHTYPE" speedFactor="0.90" vaporized=""/>
    <tripinfo id="66" depart="222.00" departLane="n3ton4_0" departPos="5.10" departSpeed="0.00" departDelay="156.00" arrival="234.00" arrivalLane="n4ton0_0" arrivalPos="39.60" arrivalSpeed="12.82" duration="12.00" routeLength="83.13" waitingTime="0.00" waitingCount="0" stopTime="0.00" timeLoss="5.18" rerouteNo="0" devices="tripinfo_66" vType="DEFAULT_VEHTYPE" speedFactor="0.85" vaporized=""/>
    <tripinfo id="71" depart="225.00" departLane="n3ton4_0" departPos="5.10" departSpeed="0.00" departDelay="154.00" arrival="236.00" arrivalLane="n4ton1_0" arrivalPos="39.60" arrivalSpeed="16.56" duration="11.00" routeLength="94.90" waitingTime="0.00" waitingCount="0" stopTime="0.00" timeLoss="5.45" rerouteNo="0" devices="tripinfo_71" vType="DEFAULT_VEHTYPE" speedFactor="1.10" vaporized=""/>
    <tripinfo id="80" depart="228.00" departLane="n3ton4_0" departPos="5.10" departSpeed="0.00" departDelay="148.00" arrival="238.00" arrivalLane="n4ton1_0" arrivalPos="39.60" arrivalSpeed="15.08" duration="10.00" routeLength="94.90" waitingTime="0.00" waitingCount="0" stopTime="0.00" timeLoss="3.90" rerouteNo="0" devices="tripinfo_80" vType="DEFAULT_VEHTYPE" speedFactor="1.02" vaporized=""/>
    <tripinfo id="81" depart="231.00" departLane="n3ton4_0" departPos="5.10" departSpeed="0.00" departDelay="150.00" arrival="241.00" arrivalLane="n4ton1_0" arrivalPos="39.60" arrivalSpeed="15.00" duration="10.00" routeLength="94.90" waitingTime="0.00" waitingCount="0" stopTime="0.00" timeLoss="3.50" rerouteNo="0" devices="tripinfo_81" vType="DEFAULT_VEHTYPE" speedFactor="0.97" vaporized=""/>
    <tripinfo id="85" depart="234.00" departLane="n3ton4_0" departPos="5.10" departSpeed="0.00" departDelay="149.00" arrival="244.00" arrivalLane="n4ton1_0" arrivalPos="39.60" arrivalSpeed="14.96" duration="10.00" routeLength="94.90" waitingTime="0.00" waitingCount="0" stopTime="0.00" timeLoss="4.09" rerouteNo="0" devices="tripinfo_85" vType="DEFAULT_VEHTYPE" speedFactor="1.02" vaporized=""/>
    <tripinfo id="87" depart="237.00" departLane="n3ton4_0" departPos="5.10" departSpeed="0.00" departDelay="150.00" arrival="247.00" arrivalLane="n4ton1_0" arrivalPos="39.60" arrivalSpeed="14.70" duration="10.00" routeLength="94.90" waitingTime="0.00" waitingCount="0" stopTime="0.00" timeLoss="3.52" rerouteNo="0" devices="tripinfo_87" vType="DEFAULT_VEHTYPE" speedFactor="0.94" vaporized=""/>
    <tripinfo id="88" depart="240.00" departLane="n3ton4_0" departPos="5.10" departSpeed="0.00" departDelay="152.00" arrival="251.00" arrivalLane="n4ton1_0" arrivalPos="39.60" arrivalSpeed="13.65" duration="11.00" routeLength="94.90" waitingTime="0.00" waitingCount="0" stopTime="0.00" timeLoss="3.37" rerouteNo="0" devices="tripinfo_88" vType="DEFAULT_VEHTYPE" speedFactor="0.88" vaporized=""/>
    <tripinfo id="42" depart="42.00" departLane="n0ton4_0" departPos="5.10" departSpeed="0.00" departDelay="0.00" arrival="254.00" arrivalLane="n4ton3_1" arrivalPos="39.60" arrivalSpeed="0.30" duration="212.00" routeLength="93.45" waitingTime="38.00" waitingCount="1" stopTime="0.00" timeLoss="204.75" rerouteNo="0" devices="tripinfo_42" vType="DEFAULT_VEHTYPE" speedFactor="0.93" vaporized=""/>
    <tripinfo id="91" depart="243.00" departLane="n3ton4_0" departPos="5.10" departSpeed="0.00" departDelay="152.00" arrival="255.00" arrivalLane="n4ton0_0" arrivalPos="39.60" arrivalSpeed="14.62" duration="12.00" routeLength="83.13" waitingTime="0.00" waitingCount="0" stopTime="0.00" timeLoss="5.25" rerouteNo="0" devices="tripinfo_91" vType="DEFAULT_VEHTYPE" speedFactor="1.04" vaporized=""/>
    <tripinfo id="97" depart="247.00" departLane="n3ton4_0" departPos="5.10" departSpeed="0.00" departDelay="150.00" arrival="257.00" arrivalLane="n4ton1_0" arrivalPos="39.60" arrivalSpeed="14.93" duration="10.00" routeLength="94.90" waitingTime="0.00" waitingCount="0" stopTime="0.00" timeLoss="3.46" rerouteNo="0" devices="tripinfo_97" vType="DEFAULT_VEHTYPE" speedFactor="0.96" vaporized=""/>
    <tripinfo id="111" depart="112.00" departLane="n0ton4_0" departPos="5.10" departSpeed="0.00" departDelay="1.00" arrival="267.00" arrivalLane="n4ton2_0" arrivalPos="39.60" arrivalSpeed="14.79" duration="155.00" routeLength="94.90" waitingTime="138.00" waitingCount="1" stopTime="0.00" timeLoss="148.72" rerouteNo="0" devices="tripinfo_111" vType="DEFAULT_VEHTYPE" speedFactor="0.97" vaporized=""/>
    <tripinfo id="112" depart="115.00" departLane="n0ton4_0" departPos="5.10" departSpeed="0.00" departDelay="3.00" arrival="269.00" arrivalLane="n4ton1_0" arrivalPos="39.60" arrivalSpeed="15.69" duration="154.00" routeLength="83.13" waitingTime="136.00" waitingCount="1" stopTime="0.00" timeLoss="147.75" rerouteNo="0" devices="tripinfo_112" vType="DEFAULT_VEHTYPE" speedFactor="1.15" vaporized=""/>